 written on 14Jun2022 at 13:01:02 
   3.84251446473457       0.000000000000000E+000  0.000000000000000E+000
  0.000000000000000E+000   3.84251446473457       0.000000000000000E+000
  0.000000000000000E+000  0.000000000000000E+000   3.84251446473457     
           3
        1331
    8    4    4    4    4    4    4    4    4    4    8    4    2    2    2
    2    2    2    2    2    2    4    4    2    2    2    2    2    2    2
    2    2    4    4    2    2    2    2    2    2    2    2    2    4    4
    2    2    2    2    2    2    2    2    2    4    4    2    2    2    2
    2    2    2    2    2    4    4    2    2    2    2    2    2    2    2
    2    4    4    2    2    2    2    2    2    2    2    2    4    4    2
    2    2    2    2    2    2    2    2    4    4    2    2    2    2    2
    2    2    2    2    4    8    4    4    4    4    4    4    4    4    4
    8    4    2    2    2    2    2    2    2    2    2    4    2    1    1
    1    1    1    1    1    1    1    2    2    1    1    1    1    1    1
    1    1    1    2    2    1    1    1    1    1    1    1    1    1    2
    2    1    1    1    1    1    1    1    1    1    2    2    1    1    1
    1    1    1    1    1    1    2    2    1    1    1    1    1    1    1
    1    1    2    2    1    1    1    1    1    1    1    1    1    2    2
    1    1    1    1    1    1    1    1    1    2    2    1    1    1    1
    1    1    1    1    1    2    4    2    2    2    2    2    2    2    2
    2    4    4    2    2    2    2    2    2    2    2    2    4    2    1
    1    1    1    1    1    1    1    1    2    2    1    1    1    1    1
    1    1    1    1    2    2    1    1    1    1    1    1    1    1    1
    2    2    1    1    1    1    1    1    1    1    1    2    2    1    1
    1    1    1    1    1    1    1    2    2    1    1    1    1    1    1
    1    1    1    2    2    1    1    1    1    1    1    1    1    1    2
    2    1    1    1    1    1    1    1    1    1    2    2    1    1    1
    1    1    1    1    1    1    2    4    2    2    2    2    2    2    2
    2    2    4    4    2    2    2    2    2    2    2    2    2    4    2
    1    1    1    1    1    1    1    1    1    2    2    1    1    1    1
    1    1    1    1    1    2    2    1    1    1    1    1    1    1    1
    1    2    2    1    1    1    1    1    1    1    1    1    2    2    1
    1    1    1    1    1    1    1    1    2    2    1    1    1    1    1
    1    1    1    1    2    2    1    1    1    1    1    1    1    1    1
    2    2    1    1    1    1    1    1    1    1    1    2    2    1    1
    1    1    1    1    1    1    1    2    4    2    2    2    2    2    2
    2    2    2    4    4    2    2    2    2    2    2    2    2    2    4
    2    1    1    1    1    1    1    1    1    1    2    2    1    1    1
    1    1    1    1    1    1    2    2    1    1    1    1    1    1    1
    1    1    2    2    1    1    1    1    1    1    1    1    1    2    2
    1    1    1    1    1    1    1    1    1    2    2    1    1    1    1
    1    1    1    1    1    2    2    1    1    1    1    1    1    1    1
    1    2    2    1    1    1    1    1    1    1    1    1    2    2    1
    1    1    1    1    1    1    1    1    2    4    2    2    2    2    2
    2    2    2    2    4    4    2    2    2    2    2    2    2    2    2
    4    2    1    1    1    1    1    1    1    1    1    2    2    1    1
    1    1    1    1    1    1    1    2    2    1    1    1    1    1    1
    1    1    1    2    2    1    1    1    1    1    1    1    1    1    2
    2    1    1    1    1    1    1    1    1    1    2    2    1    1    1
    1    1    1    1    1    1    2    2    1    1    1    1    1    1    1
    1    1    2    2    1    1    1    1    1    1    1    1    1    2    2
    1    1    1    1    1    1    1    1    1    2    4    2    2    2    2
    2    2    2    2    2    4    4    2    2    2    2    2    2    2    2
    2    4    2    1    1    1    1    1    1    1    1    1    2    2    1
    1    1    1    1    1    1    1    1    2    2    1    1    1    1    1
    1    1    1    1    2    2    1    1    1    1    1    1    1    1    1
    2    2    1    1    1    1    1    1    1    1    1    2    2    1    1
    1    1    1    1    1    1    1    2    2    1    1    1    1    1    1
    1    1    1    2    2    1    1    1    1    1    1    1    1    1    2
    2    1    1    1    1    1    1    1    1    1    2    4    2    2    2
    2    2    2    2    2    2    4    4    2    2    2    2    2    2    2
    2    2    4    2    1    1    1    1    1    1    1    1    1    2    2
    1    1    1    1    1    1    1    1    1    2    2    1    1    1    1
    1    1    1    1    1    2    2    1    1    1    1    1    1    1    1
    1    2    2    1    1    1    1    1    1    1    1    1    2    2    1
    1    1    1    1    1    1    1    1    2    2    1    1    1    1    1
    1    1    1    1    2    2    1    1    1    1    1    1    1    1    1
    2    2    1    1    1    1    1    1    1    1    1    2    4    2    2
    2    2    2    2    2    2    2    4    4    2    2    2    2    2    2
    2    2    2    4    2    1    1    1    1    1    1    1    1    1    2
    2    1    1    1    1    1    1    1    1    1    2    2    1    1    1
    1    1    1    1    1    1    2    2    1    1    1    1    1    1    1
    1    1    2    2    1    1    1    1    1    1    1    1    1    2    2
    1    1    1    1    1    1    1    1    1    2    2    1    1    1    1
    1    1    1    1    1    2    2    1    1    1    1    1    1    1    1
    1    2    2    1    1    1    1    1    1    1    1    1    2    4    2
    2    2    2    2    2    2    2    2    4    4    2    2    2    2    2
    2    2    2    2    4    2    1    1    1    1    1    1    1    1    1
    2    2    1    1    1    1    1    1    1    1    1    2    2    1    1
    1    1    1    1    1    1    1    2    2    1    1    1    1    1    1
    1    1    1    2    2    1    1    1    1    1    1    1    1    1    2
    2    1    1    1    1    1    1    1    1    1    2    2    1    1    1
    1    1    1    1    1    1    2    2    1    1    1    1    1    1    1
    1    1    2    2    1    1    1    1    1    1    1    1    1    2    4
    2    2    2    2    2    2    2    2    2    4    8    4    4    4    4
    4    4    4    4    4    8    4    2    2    2    2    2    2    2    2
    2    4    4    2    2    2    2    2    2    2    2    2    4    4    2
    2    2    2    2    2    2    2    2    4    4    2    2    2    2    2
    2    2    2    2    4    4    2    2    2    2    2    2    2    2    2
    4    4    2    2    2    2    2    2    2    2    2    4    4    2    2
    2    2    2    2    2    2    2    4    4    2    2    2    2    2    2
    2    2    2    4    4    2    2    2    2    2    2    2    2    2    4
    8    4    4    4    4    4    4    4    4    4    8

   -5   -5   -5
    1    1   -0.80526914E-15 -0.66893622E-04
    2    1    0.15161250E-03  0.18481309E-03
    3    1    0.11030120E-03  0.16649634E-03
    1    2   -0.15161250E-03  0.18481309E-03
    2    2   -0.81494139E-15  0.37350780E-03
    3    2    0.11376358E-04  0.29036211E-04
    1    3   -0.11030120E-03  0.16649634E-03
    2    3   -0.11376358E-04  0.29036211E-04
    3    3   -0.80276139E-15 -0.30661418E-03

   -5   -5   -4
    1    1    0.37069197E-03  0.16159321E-03
    2    1   -0.20223778E-04  0.67209551E-03
    3    1    0.26975098E-03  0.34618232E-03
    1    2   -0.12584490E-03 -0.59765119E-04
    2    2    0.92031012E-04  0.25461222E-03
    3    2    0.94002869E-03 -0.10896242E-03
    1    3    0.82771871E-04 -0.52740145E-03
    2    3    0.12050277E-02 -0.14697983E-04
    3    3   -0.46272299E-03 -0.41620542E-03

   -5   -5   -3
    1    1    0.16578492E-03  0.89823526E-04
    2    1    0.34966393E-03  0.55581384E-03
    3    1   -0.35955283E-04  0.47081859E-03
    1    2    0.36384787E-03 -0.24942212E-03
    2    2    0.15786306E-03 -0.88112205E-04
    3    2   -0.27969451E-03  0.80421518E-04
    1    3    0.11825863E-03 -0.88666827E-03
    2    3   -0.56899394E-03 -0.10816493E-03
    3    3   -0.32364798E-03 -0.17113207E-05

   -5   -5   -2
    1    1    0.15884770E-03 -0.17627761E-03
    2    1    0.10872594E-03 -0.34276392E-03
    3    1   -0.67388452E-03 -0.33680787E-04
    1    2    0.19202997E-03 -0.12048183E-03
    2    2   -0.43059796E-03 -0.32960264E-03
    3    2    0.16957377E-03  0.76694681E-03
    1    3    0.22417103E-03  0.15433164E-04
    2    3   -0.44423044E-03 -0.50589873E-03
    3    3    0.27175026E-03  0.50588025E-03

   -5   -5   -1
    1    1   -0.15844414E-03 -0.29320060E-03
    2    1    0.45209665E-03 -0.83350677E-03
    3    1    0.42978993E-03 -0.70228996E-03
    1    2   -0.12734611E-04  0.21569968E-03
    2    2   -0.14744370E-03  0.36506332E-03
    3    2   -0.13446366E-02  0.12340000E-02
    1    3   -0.52362219E-03  0.36887708E-03
    2    3   -0.12008349E-02 -0.11340943E-02
    3    3    0.30588783E-03 -0.71862723E-04

   -5   -5    0
    1    1    0.10829956E-02  0.75560523E-16
    2    1    0.36220822E-03 -0.39060840E-03
    3    1   -0.10651663E-03 -0.76066126E-03
    1    2    0.36220822E-03  0.39060840E-03
    2    2   -0.26685056E-03  0.10217545E-15
    3    2   -0.75858999E-03  0.93184319E-03
    1    3   -0.10651663E-03  0.76066126E-03
    2    3   -0.75858999E-03 -0.93184319E-03
    3    3   -0.81614500E-03  0.10439237E-15

   -5   -5    1
    1    1   -0.15844414E-03  0.29320060E-03
    2    1   -0.12734611E-04 -0.21569968E-03
    3    1   -0.52362219E-03 -0.36887708E-03
    1    2    0.45209665E-03  0.83350677E-03
    2    2   -0.14744370E-03 -0.36506332E-03
    3    2   -0.12008349E-02  0.11340943E-02
    1    3    0.42978993E-03  0.70228996E-03
    2    3   -0.13446366E-02 -0.12340000E-02
    3    3    0.30588783E-03  0.71862723E-04

   -5   -5    2
    1    1    0.15884770E-03  0.17627761E-03
    2    1    0.19202997E-03  0.12048183E-03
    3    1    0.22417103E-03 -0.15433164E-04
    1    2    0.10872594E-03  0.34276392E-03
    2    2   -0.43059796E-03  0.32960264E-03
    3    2   -0.44423044E-03  0.50589873E-03
    1    3   -0.67388452E-03  0.33680787E-04
    2    3    0.16957377E-03 -0.76694681E-03
    3    3    0.27175026E-03 -0.50588025E-03

   -5   -5    3
    1    1    0.16578492E-03 -0.89823526E-04
    2    1    0.36384787E-03  0.24942212E-03
    3    1    0.11825863E-03  0.88666827E-03
    1    2    0.34966393E-03 -0.55581384E-03
    2    2    0.15786306E-03  0.88112205E-04
    3    2   -0.56899394E-03  0.10816493E-03
    1    3   -0.35955283E-04 -0.47081859E-03
    2    3   -0.27969451E-03 -0.80421518E-04
    3    3   -0.32364798E-03  0.17113207E-05

   -5   -5    4
    1    1    0.37069197E-03 -0.16159321E-03
    2    1   -0.12584490E-03  0.59765119E-04
    3    1    0.82771871E-04  0.52740145E-03
    1    2   -0.20223778E-04 -0.67209551E-03
    2    2    0.92031012E-04 -0.25461222E-03
    3    2    0.12050277E-02  0.14697983E-04
    1    3    0.26975098E-03 -0.34618232E-03
    2    3    0.94002869E-03  0.10896242E-03
    3    3   -0.46272299E-03  0.41620542E-03

   -5   -5    5
    1    1   -0.53224085E-15  0.66893622E-04
    2    1   -0.15161250E-03 -0.18481309E-03
    3    1   -0.11030120E-03 -0.16649634E-03
    1    2    0.15161250E-03 -0.18481309E-03
    2    2   -0.53532418E-15 -0.37350780E-03
    3    2   -0.11376358E-04 -0.29036211E-04
    1    3    0.11030120E-03 -0.16649634E-03
    2    3    0.11376358E-04 -0.29036211E-04
    3    3   -0.53371394E-15  0.30661418E-03

   -5   -4   -5
    1    1    0.11455857E-03 -0.26010779E-03
    2    1   -0.10331393E-03  0.98239611E-04
    3    1    0.10137525E-02 -0.22367462E-03
    1    2    0.43612300E-03  0.27676604E-03
    2    2    0.44328258E-03  0.32261997E-03
    3    2    0.41648571E-03  0.43689757E-03
    1    3    0.10099925E-02  0.14331155E-04
    2    3   -0.33956999E-03  0.13023591E-03
    3    3   -0.55784115E-03 -0.62512178E-04

   -5   -4   -4
    1    1    0.70433513E-04  0.58209920E-03
    2    1   -0.41846165E-03 -0.13043072E-03
    3    1    0.71365347E-03  0.37941332E-03
    1    2    0.28235686E-03  0.31983351E-03
    2    2    0.16880751E-03  0.97982323E-04
    3    2    0.65736533E-03  0.36831737E-03
    1    3   -0.39229993E-03 -0.82157260E-03
    2    3   -0.90717259E-03 -0.43943122E-04
    3    3   -0.23924103E-03 -0.68008152E-03

   -5   -4   -3
    1    1    0.49029115E-03  0.49752420E-04
    2    1    0.17510665E-03 -0.45297725E-03
    3    1   -0.11079198E-02 -0.14646513E-04
    1    2    0.35395314E-03  0.28685197E-03
    2    2    0.79207138E-04 -0.16594233E-03
    3    2   -0.77917196E-04  0.96464243E-04
    1    3   -0.57142450E-04 -0.21912987E-03
    2    3   -0.51410325E-03  0.20956578E-03
    3    3   -0.56949829E-03  0.11618991E-03

   -5   -4   -2
    1    1   -0.15248286E-03 -0.10867909E-02
    2    1    0.46546041E-03 -0.67998803E-03
    3    1   -0.13675648E-02 -0.74226705E-04
    1    2    0.40255458E-03  0.93038559E-03
    2    2   -0.21294318E-03  0.35826750E-03
    3    2    0.48540958E-03 -0.39501100E-03
    1    3   -0.11736181E-03  0.41714406E-03
    2    3    0.19019446E-03  0.66076770E-03
    3    3    0.36542604E-03  0.72852338E-03

   -5   -4   -1
    1    1   -0.99308958E-04  0.25426191E-03
    2    1    0.12761789E-03  0.27434204E-03
    3    1   -0.23497472E-03  0.40480320E-03
    1    2    0.79818638E-03 -0.58416554E-04
    2    2   -0.15115191E-03 -0.63423703E-03
    3    2   -0.40788051E-03 -0.10320897E-02
    1    3   -0.57667470E-04 -0.13432851E-03
    2    3    0.57676238E-03  0.26935536E-03
    3    3    0.25046087E-03  0.37997512E-03

   -5   -4    0
    1    1    0.60657292E-03  0.48886416E-03
    2    1    0.69053146E-03  0.38052837E-03
    3    1   -0.13610018E-02 -0.97088907E-03
    1    2    0.23465194E-03 -0.12122976E-03
    2    2   -0.49488541E-04  0.85210680E-03
    3    2    0.28112767E-03  0.15866044E-03
    1    3    0.52098538E-03 -0.31056286E-03
    2    3    0.82990164E-03  0.53112600E-03
    3    3   -0.55708438E-03 -0.13409710E-02

   -5   -4    1
    1    1    0.30095313E-03 -0.29511002E-03
    2    1   -0.36395452E-03  0.15521725E-03
    3    1    0.40564618E-03 -0.49889035E-03
    1    2    0.50262204E-03 -0.15101299E-04
    2    2    0.17216295E-03 -0.29957533E-04
    3    2   -0.10963401E-02 -0.60011670E-04
    1    3    0.55191747E-04  0.38570890E-03
    2    3    0.76570907E-03  0.28281780E-03
    3    3   -0.47311608E-03  0.32506756E-03

   -5   -4    2
    1    1    0.63942251E-04 -0.44901120E-04
    2    1    0.34144140E-03  0.35346313E-03
    3    1    0.10261807E-02  0.38834242E-03
    1    2    0.16639763E-03 -0.95915388E-04
    2    2    0.36564045E-03  0.42870854E-03
    3    2   -0.74207045E-04 -0.23797815E-04
    1    3    0.36794141E-03 -0.99205906E-03
    2    3    0.79318942E-03  0.51834483E-03
    3    3   -0.42958270E-03 -0.38380742E-03

   -5   -4    3
    1    1    0.65606984E-03  0.60808466E-04
    2    1    0.43803335E-03 -0.66249841E-03
    3    1    0.27750244E-03  0.86133053E-03
    1    2    0.19742313E-03  0.16375610E-04
    2    2    0.26178566E-03 -0.56296020E-03
    3    2   -0.86615616E-03  0.39750295E-03
    1    3    0.10289188E-02 -0.26215418E-03
    2    3   -0.25619068E-03 -0.93185903E-04
    3    3   -0.91785550E-03  0.50215174E-03

   -5   -4    4
    1    1   -0.24749182E-03 -0.98729428E-04
    2    1    0.44261919E-03 -0.78663478E-03
    3    1    0.61790498E-03  0.69560499E-04
    1    2    0.17166345E-04  0.37196583E-03
    2    2   -0.11011208E-03 -0.47199127E-03
    3    2   -0.30092058E-03  0.16355604E-03
    1    3   -0.46660928E-03  0.46653951E-04
    2    3   -0.53712349E-03 -0.14653268E-03
    3    3    0.35760391E-03  0.57072069E-03

   -5   -4    5
    1    1   -0.11455857E-03  0.26010779E-03
    2    1    0.10331393E-03 -0.98239611E-04
    3    1   -0.10137525E-02  0.22367462E-03
    1    2   -0.43612300E-03 -0.27676604E-03
    2    2   -0.44328258E-03 -0.32261997E-03
    3    2   -0.41648571E-03 -0.43689757E-03
    1    3   -0.10099925E-02 -0.14331155E-04
    2    3    0.33956999E-03 -0.13023591E-03
    3    3    0.55784115E-03  0.62512178E-04

   -5   -3   -5
    1    1    0.73739317E-03 -0.36173482E-03
    2    1    0.42601590E-03 -0.10142674E-03
    3    1   -0.32122584E-03 -0.42107204E-03
    1    2    0.45871950E-03  0.16832349E-03
    2    2    0.61092215E-04  0.26421355E-03
    3    2   -0.91960067E-04  0.12481501E-03
    1    3   -0.89612315E-03  0.12945856E-04
    2    3   -0.23273541E-03 -0.21327290E-03
    3    3   -0.79848539E-03  0.97521269E-04

   -5   -3   -4
    1    1   -0.86781552E-03 -0.18380713E-04
    2    1   -0.10307300E-03 -0.57527549E-04
    3    1   -0.15665002E-03  0.53267116E-03
    1    2    0.44176172E-04 -0.43258297E-04
    2    2    0.41044620E-04  0.63705676E-03
    3    2   -0.95012384E-03 -0.16919734E-03
    1    3    0.17170728E-03 -0.42438247E-03
    2    3   -0.41679310E-03 -0.60416961E-04
    3    3    0.82677090E-03 -0.61867605E-03

   -5   -3   -3
    1    1    0.72322730E-03  0.43009629E-03
    2    1    0.32017792E-03 -0.10796968E-03
    3    1    0.22133455E-03 -0.91282918E-03
    1    2   -0.29761916E-03 -0.99345836E-05
    2    2   -0.36362590E-03  0.77980956E-04
    3    2    0.25123139E-03  0.94272136E-04
    1    3    0.11149995E-02  0.63019611E-03
    2    3    0.67987561E-03  0.69959610E-04
    3    3   -0.35960140E-03 -0.50807724E-03

   -5   -3   -2
    1    1    0.11321745E-03 -0.40402851E-03
    2    1   -0.94662441E-04  0.25030058E-03
    3    1    0.81815166E-03 -0.59926552E-04
    1    2    0.29964638E-03  0.91742478E-05
    2    2    0.81131197E-04  0.52505027E-04
    3    2    0.54398302E-03  0.74550778E-03
    1    3    0.92376184E-03 -0.30083930E-04
    2    3   -0.13487567E-02  0.60350287E-05
    3    3   -0.19434865E-03  0.35152349E-03

   -5   -3   -1
    1    1   -0.45718391E-04  0.32590502E-03
    2    1   -0.22665991E-03  0.56161743E-03
    3    1    0.53817873E-03 -0.40144022E-03
    1    2   -0.10824557E-03  0.58264880E-03
    2    2    0.20251568E-03 -0.48835371E-03
    3    2    0.14285020E-02  0.13430811E-02
    1    3    0.67950015E-03 -0.95442611E-03
    2    3   -0.68436134E-03  0.84239853E-04
    3    3   -0.15679729E-03  0.16244869E-03

   -5   -3    0
    1    1    0.78216557E-03 -0.44163407E-04
    2    1    0.18263496E-03  0.37940458E-04
    3    1    0.27880898E-03  0.30404862E-03
    1    2   -0.28622222E-03  0.12661690E-02
    2    2   -0.26591387E-03  0.39758012E-03
    3    2    0.12153833E-02  0.64344707E-03
    1    3   -0.15022786E-03 -0.43544096E-03
    2    3   -0.91714083E-03 -0.14480521E-03
    3    3   -0.51625171E-03 -0.35341671E-03

   -5   -3    1
    1    1    0.58945327E-03 -0.69788929E-03
    2    1    0.92233319E-03 -0.74419361E-03
    3    1    0.10085915E-02 -0.89718598E-04
    1    2    0.18905087E-03  0.17922329E-03
    2    2    0.38854119E-04 -0.47897300E-03
    3    2    0.88515718E-03  0.39009576E-03
    1    3   -0.57321362E-03 -0.57530513E-03
    2    3   -0.61007815E-03 -0.45119020E-04
    3    3   -0.62830739E-03  0.11768623E-02

   -5   -3    2
    1    1   -0.74816599E-04  0.10019984E-02
    2    1    0.54063667E-03 -0.44197773E-03
    3    1   -0.71349297E-03  0.63771760E-03
    1    2    0.99513471E-04 -0.30425565E-03
    2    2    0.49445572E-03 -0.84902212E-03
    3    2    0.55161048E-03  0.23780045E-03
    1    3   -0.49632380E-03 -0.11750352E-02
    2    3   -0.12480700E-02 -0.31634275E-03
    3    3   -0.41963912E-03 -0.15297630E-03

   -5   -3    3
    1    1    0.10961060E-02  0.38476912E-03
    2    1    0.27387797E-03  0.24113734E-03
    3    1   -0.89701829E-03  0.87338785E-04
    1    2   -0.16368584E-03  0.15052932E-03
    2    2   -0.31525850E-03 -0.65849343E-03
    3    2    0.31035619E-03 -0.50564335E-03
    1    3   -0.60185691E-03  0.32482549E-03
    2    3    0.51592944E-03  0.21895551E-03
    3    3   -0.78084754E-03  0.27372431E-03

   -5   -3    4
    1    1   -0.84241201E-03 -0.82933842E-03
    2    1    0.75078872E-04  0.15352722E-03
    3    1    0.35370160E-03  0.35206418E-03
    1    2   -0.24417364E-04 -0.63075895E-03
    2    2   -0.75266155E-04  0.10496669E-03
    3    2   -0.82850782E-03 -0.42036982E-03
    1    3    0.14895228E-03  0.22495846E-03
    2    3   -0.19752924E-03  0.58596814E-03
    3    3    0.91767817E-03  0.72437173E-03

   -5   -3    5
    1    1   -0.73739317E-03  0.36173482E-03
    2    1   -0.42601590E-03  0.10142674E-03
    3    1    0.32122584E-03  0.42107204E-03
    1    2   -0.45871950E-03 -0.16832349E-03
    2    2   -0.61092215E-04 -0.26421355E-03
    3    2    0.91960067E-04 -0.12481501E-03
    1    3    0.89612315E-03 -0.12945856E-04
    2    3    0.23273541E-03  0.21327290E-03
    3    3    0.79848539E-03 -0.97521269E-04

   -5   -2   -5
    1    1    0.83298656E-03  0.11825467E-03
    2    1   -0.45628326E-04  0.32385802E-03
    3    1    0.72954367E-03  0.37127934E-03
    1    2    0.10761632E-03 -0.56649305E-03
    2    2   -0.56338609E-03  0.27128000E-03
    3    2    0.10562603E-03  0.16802915E-03
    1    3   -0.54214300E-03  0.83572341E-04
    2    3   -0.96847256E-04 -0.42000497E-03
    3    3   -0.26960048E-03 -0.38953467E-03

   -5   -2   -4
    1    1   -0.92638442E-03  0.91923386E-05
    2    1   -0.21119151E-03  0.40398066E-03
    3    1    0.22785041E-03  0.93208906E-05
    1    2    0.26665408E-03  0.77209266E-04
    2    2   -0.29268857E-03 -0.91311009E-04
    3    2   -0.84107436E-03 -0.82318012E-03
    1    3    0.12105606E-02 -0.46816596E-03
    2    3   -0.54935660E-03  0.11074042E-02
    3    3    0.12190730E-02  0.82118670E-04

   -5   -2   -3
    1    1   -0.28832301E-04  0.23525663E-03
    2    1    0.37930920E-04  0.52794337E-04
    3    1   -0.16674835E-03 -0.12704472E-02
    1    2   -0.18756524E-03  0.68353557E-03
    2    2   -0.11927783E-03  0.83454601E-03
    3    2    0.77713410E-03 -0.10771689E-03
    1    3   -0.91498258E-04  0.26118188E-03
    2    3    0.33785848E-03  0.95426489E-03
    3    3    0.14811013E-03 -0.10698026E-02

   -5   -2   -2
    1    1    0.77671136E-03 -0.56755967E-03
    2    1   -0.30363124E-03  0.78813514E-05
    3    1    0.84585879E-03 -0.59602400E-04
    1    2   -0.55179276E-03  0.61683367E-03
    2    2   -0.55897824E-03  0.12665745E-02
    3    2    0.15009095E-03 -0.84360389E-04
    1    3   -0.67475254E-03 -0.35530810E-03
    2    3   -0.74160214E-03  0.52698742E-03
    3    3   -0.21773312E-03 -0.69901479E-03

   -5   -2   -1
    1    1   -0.35377387E-03 -0.60677261E-04
    2    1    0.10648817E-02 -0.27183584E-03
    3    1   -0.45677711E-04  0.10726968E-03
    1    2   -0.50768045E-03  0.12143339E-02
    2    2   -0.16119732E-03  0.90203224E-03
    3    2    0.62142672E-03  0.55593255E-03
    1    3    0.43681414E-03 -0.66055294E-03
    2    3    0.13050503E-02  0.24765392E-03
    3    3    0.51497118E-03 -0.84135498E-03

   -5   -2    0
    1    1    0.49245820E-03 -0.21617799E-03
    2    1    0.92798689E-03 -0.55522118E-04
    3    1    0.18101843E-02  0.41164260E-03
    1    2   -0.15537341E-03  0.64688244E-03
    2    2    0.38663986E-03 -0.78352460E-03
    3    2    0.33067334E-02  0.98298273E-03
    1    3   -0.12914669E-02 -0.10904171E-02
    2    3   -0.43774506E-03  0.45183068E-03
    3    3   -0.87909805E-03  0.99970258E-03

   -5   -2    1
    1    1    0.59213221E-03 -0.11758652E-02
    2    1    0.87582484E-03  0.61268408E-03
    3    1    0.35240762E-03  0.14920512E-02
    1    2    0.67200735E-03  0.53614182E-03
    2    2    0.41476273E-03 -0.20278873E-03
    3    2    0.84423253E-03  0.44521815E-03
    1    3   -0.10759177E-03 -0.95757997E-03
    2    3    0.59890812E-03 -0.34906980E-03
    3    3   -0.10068949E-02  0.13786539E-02

   -5   -2    2
    1    1    0.89656670E-03 -0.90304094E-04
    2    1    0.35892775E-03 -0.33831599E-03
    3    1    0.48222599E-03  0.47441264E-03
    1    2    0.23527551E-03 -0.75105822E-03
    2    2   -0.22197242E-03 -0.27987109E-03
    3    2    0.68547588E-03  0.18994110E-03
    1    3   -0.52780276E-03 -0.63678934E-03
    2    3   -0.83024016E-03  0.18301301E-03
    3    3   -0.67459428E-03  0.37017518E-03

   -5   -2    3
    1    1    0.21682458E-03  0.79990796E-03
    2    1   -0.10977634E-03  0.97973678E-04
    3    1    0.94335782E-03 -0.89839130E-03
    1    2    0.95744303E-04 -0.23298598E-03
    2    2    0.17420792E-03 -0.21481431E-03
    3    2    0.51872419E-03 -0.74075318E-03
    1    3   -0.78339711E-03  0.75511980E-03
    2    3    0.79524281E-03  0.71429636E-03
    3    3   -0.39103250E-03 -0.58509365E-03

   -5   -2    4
    1    1   -0.87775919E-03 -0.12774843E-03
    2    1   -0.86506169E-05  0.69459279E-04
    3    1   -0.39268076E-03  0.81446152E-03
    1    2    0.20772551E-04 -0.20875512E-03
    2    2    0.23934782E-03 -0.54287220E-03
    3    2   -0.49963409E-03 -0.13931589E-02
    1    3   -0.78116149E-03 -0.49062350E-03
    2    3   -0.77899090E-03  0.10986906E-02
    3    3    0.63841137E-03  0.67062063E-03

   -5   -2    5
    1    1   -0.83298656E-03 -0.11825467E-03
    2    1    0.45628326E-04 -0.32385802E-03
    3    1   -0.72954367E-03 -0.37127934E-03
    1    2   -0.10761632E-03  0.56649305E-03
    2    2    0.56338609E-03 -0.27128000E-03
    3    2   -0.10562603E-03 -0.16802915E-03
    1    3    0.54214300E-03 -0.83572341E-04
    2    3    0.96847256E-04  0.42000497E-03
    3    3    0.26960048E-03  0.38953467E-03

   -5   -1   -5
    1    1    0.85461900E-03  0.43064527E-03
    2    1   -0.32289651E-03 -0.31169845E-03
    3    1   -0.35668387E-03  0.34357109E-03
    1    2    0.25566701E-03 -0.65973129E-03
    2    2   -0.58500072E-03  0.10211040E-03
    3    2    0.66846332E-03 -0.14996827E-03
    1    3   -0.11981900E-02 -0.17731957E-04
    2    3   -0.78598351E-03 -0.31331119E-03
    3    3   -0.26961828E-03 -0.53275568E-03

   -5   -1   -4
    1    1    0.22755504E-03  0.16467372E-03
    2    1    0.28826999E-03 -0.80769018E-03
    3    1   -0.47826741E-03 -0.50097097E-03
    1    2    0.34456331E-04  0.33940914E-04
    2    2   -0.85627097E-03  0.49061858E-03
    3    2   -0.64094290E-03 -0.26525513E-04
    1    3    0.13274341E-02 -0.27320525E-03
    2    3   -0.71739218E-03 -0.66817397E-04
    3    3    0.62871593E-03 -0.65529229E-03

   -5   -1   -3
    1    1   -0.72257081E-03  0.17582139E-03
    2    1    0.26814307E-03  0.58360268E-03
    3    1    0.77244273E-03 -0.10979806E-02
    1    2   -0.72898689E-03  0.61676611E-03
    2    2   -0.12634412E-03  0.41619602E-03
    3    2   -0.44472929E-03 -0.62449987E-03
    1    3    0.36971059E-03  0.52757531E-03
    2    3    0.59940849E-03 -0.27583722E-03
    3    3    0.84891492E-03 -0.59201741E-03

   -5   -1   -2
    1    1    0.35468315E-03  0.43152301E-03
    2    1    0.43823334E-03  0.80609874E-03
    3    1    0.10871730E-02 -0.79462584E-03
    1    2   -0.22458895E-04  0.57586977E-03
    2    2   -0.30247491E-03  0.10270586E-02
    3    2   -0.13186877E-02 -0.15616515E-03
    1    3    0.85629900E-03 -0.13690847E-03
    2    3    0.12381840E-02  0.78007603E-03
    3    3   -0.52208241E-04 -0.14585816E-02

   -5   -1   -1
    1    1   -0.97789326E-04 -0.51803652E-03
    2    1    0.24608715E-03 -0.62689347E-03
    3    1   -0.11277664E-03  0.37694386E-03
    1    2   -0.27370543E-03 -0.88187356E-04
    2    2    0.27722126E-04  0.97042136E-03
    3    2   -0.92804750E-03  0.93676847E-03
    1    3    0.95622590E-03 -0.80028718E-03
    2    3    0.13448034E-02  0.12820032E-02
    3    3    0.70067200E-04 -0.45238484E-03

   -5   -1    0
    1    1    0.64911727E-03  0.22841960E-03
    2    1    0.14889481E-02  0.28167500E-03
    3    1    0.21075097E-02  0.55955904E-04
    1    2   -0.62848902E-03  0.10335679E-02
    2    2    0.39923589E-03  0.68664611E-03
    3    2    0.39198650E-03  0.77255890E-03
    1    3   -0.55781146E-03  0.18226814E-03
    2    3    0.11696455E-02  0.96387163E-03
    3    3   -0.10483532E-02 -0.91506571E-03

   -5   -1    1
    1    1    0.79422511E-03 -0.86839312E-03
    2    1    0.96639173E-03  0.49193764E-03
    3    1   -0.30065595E-03  0.13466647E-02
    1    2   -0.11440237E-02  0.39928362E-03
    2    2    0.80325667E-03 -0.11686975E-03
    3    2   -0.19644547E-02 -0.70482327E-03
    1    3    0.96994392E-03 -0.13568429E-02
    2    3    0.18849807E-02  0.16369536E-02
    3    3   -0.15974818E-02  0.98526287E-03

   -5   -1    2
    1    1   -0.87989320E-04 -0.17658040E-03
    2    1    0.40917894E-03  0.16354494E-04
    3    1   -0.11581426E-02 -0.88650885E-04
    1    2   -0.11970535E-02  0.34743376E-03
    2    2    0.66882057E-03  0.77231969E-03
    3    2    0.20418108E-05 -0.12948764E-02
    1    3    0.23859734E-03 -0.11272530E-02
    2    3    0.53178010E-03  0.16154840E-02
    3    3   -0.58083125E-03 -0.59573929E-03

   -5   -1    3
    1    1   -0.14621230E-04  0.12256442E-02
    2    1   -0.22512112E-03 -0.91691727E-04
    3    1    0.18952793E-03 -0.62436251E-03
    1    2   -0.23663442E-03 -0.20995972E-03
    2    2    0.46985729E-03 -0.34057994E-04
    3    2    0.69497474E-03 -0.74685478E-03
    1    3   -0.91050526E-03  0.62310393E-03
    2    3   -0.25285272E-03 -0.52495574E-03
    3    3   -0.45523606E-03 -0.11915862E-02

   -5   -1    4
    1    1    0.42077886E-05  0.34147930E-03
    2    1    0.14532566E-03 -0.24204974E-03
    3    1   -0.64667591E-03  0.75956883E-03
    1    2    0.15942156E-04 -0.20922616E-03
    2    2    0.13441113E-03 -0.11850483E-03
    3    2   -0.60280167E-03  0.16809790E-03
    1    3    0.28747714E-03 -0.83177033E-03
    2    3   -0.30420961E-04 -0.65515867E-03
    3    3   -0.13861892E-03 -0.22297447E-03

   -5   -1    5
    1    1   -0.85461900E-03 -0.43064527E-03
    2    1    0.32289651E-03  0.31169845E-03
    3    1    0.35668387E-03 -0.34357109E-03
    1    2   -0.25566701E-03  0.65973129E-03
    2    2    0.58500072E-03 -0.10211040E-03
    3    2   -0.66846332E-03  0.14996827E-03
    1    3    0.11981900E-02  0.17731957E-04
    2    3    0.78598351E-03  0.31331119E-03
    3    3    0.26961828E-03  0.53275568E-03

   -5    0   -5
    1    1    0.70125179E-03  0.10465931E-15
    2    1   -0.40027843E-03  0.32149046E-04
    3    1   -0.41552244E-03 -0.35266805E-04
    1    2   -0.40027843E-03 -0.32149046E-04
    2    2    0.34869723E-04  0.70707325E-16
    3    2    0.31703038E-04 -0.16272759E-03
    1    3   -0.41552244E-03  0.35266805E-04
    2    3    0.31703038E-04  0.16272759E-03
    3    3   -0.73612151E-03  0.10897053E-15

   -5    0   -4
    1    1   -0.37506595E-05  0.66214163E-03
    2    1   -0.17817313E-03  0.72369235E-04
    3    1    0.33217716E-03 -0.38903363E-03
    1    2    0.33387071E-03  0.33012560E-03
    2    2   -0.79716272E-03  0.80159956E-03
    3    2   -0.16285973E-02 -0.22996176E-03
    1    3    0.14033121E-02  0.39344236E-03
    2    3    0.10079410E-02 -0.54191588E-03
    3    3    0.80091338E-03 -0.14637412E-02

   -5    0   -3
    1    1   -0.25805688E-03  0.99215928E-03
    2    1   -0.56128506E-03  0.48595946E-03
    3    1    0.14576872E-02 -0.66146837E-03
    1    2   -0.11946631E-03  0.37925900E-05
    2    2   -0.93055362E-03  0.91690275E-04
    3    2   -0.68617911E-03  0.45424628E-03
    1    3    0.29904449E-04 -0.66734853E-03
    2    3   -0.23198849E-03 -0.55831181E-03
    3    3    0.11886105E-02 -0.10838496E-02

   -5    0   -2
    1    1    0.15771860E-05 -0.87851469E-03
    2    1    0.77721520E-03  0.70867518E-03
    3    1    0.31568003E-02 -0.92491765E-03
    1    2   -0.65825947E-03  0.56105890E-03
    2    2   -0.33331956E-03  0.13447827E-04
    3    2    0.81539745E-04  0.11382533E-03
    1    3   -0.26063407E-03 -0.23354149E-03
    2    3   -0.15631438E-02 -0.36426348E-03
    3    3    0.33174238E-03  0.86506686E-03

   -5    0   -1
    1    1   -0.14616884E-03 -0.70802830E-03
    2    1    0.10079064E-02  0.88470286E-03
    3    1    0.13644369E-02 -0.15704999E-03
    1    2   -0.97122986E-03  0.19547021E-03
    2    2   -0.80168593E-04  0.28386730E-03
    3    2    0.16315665E-02  0.25459427E-03
    1    3    0.35506294E-03  0.25440356E-03
    2    3   -0.11116810E-02  0.17541039E-02
    3    3    0.22633744E-03  0.42416099E-03

   -5    0    0
    1    1   -0.55189653E-15 -0.75308509E-03
    2    1    0.14990681E-02 -0.49773194E-04
    3    1    0.35106498E-02 -0.35829240E-03
    1    2   -0.14990681E-02 -0.49773194E-04
    2    2   -0.54001356E-15  0.20288521E-02
    3    2    0.38711725E-02  0.41783992E-03
    1    3   -0.35106498E-02 -0.35829240E-03
    2    3   -0.38711725E-02  0.41783992E-03
    3    3   -0.56860634E-15 -0.12757670E-02

   -5    0    1
    1    1    0.14616884E-03 -0.70802830E-03
    2    1    0.97122986E-03  0.19547021E-03
    3    1   -0.35506294E-03  0.25440356E-03
    1    2   -0.10079064E-02  0.88470286E-03
    2    2    0.80168593E-04  0.28386730E-03
    3    2    0.11116810E-02  0.17541039E-02
    1    3   -0.13644369E-02 -0.15704999E-03
    2    3   -0.16315665E-02  0.25459427E-03
    3    3   -0.22633744E-03  0.42416099E-03

   -5    0    2
    1    1   -0.15771860E-05 -0.87851469E-03
    2    1    0.65825947E-03  0.56105890E-03
    3    1    0.26063407E-03 -0.23354149E-03
    1    2   -0.77721520E-03  0.70867518E-03
    2    2    0.33331956E-03  0.13447827E-04
    3    2    0.15631438E-02 -0.36426348E-03
    1    3   -0.31568003E-02 -0.92491765E-03
    2    3   -0.81539745E-04  0.11382533E-03
    3    3   -0.33174238E-03  0.86506686E-03

   -5    0    3
    1    1    0.25805688E-03  0.99215928E-03
    2    1    0.11946631E-03  0.37925900E-05
    3    1   -0.29904449E-04 -0.66734853E-03
    1    2    0.56128506E-03  0.48595946E-03
    2    2    0.93055362E-03  0.91690275E-04
    3    2    0.23198849E-03 -0.55831181E-03
    1    3   -0.14576872E-02 -0.66146837E-03
    2    3    0.68617911E-03  0.45424628E-03
    3    3   -0.11886105E-02 -0.10838496E-02

   -5    0    4
    1    1    0.37506595E-05  0.66214163E-03
    2    1   -0.33387071E-03  0.33012560E-03
    3    1   -0.14033121E-02  0.39344236E-03
    1    2    0.17817313E-03  0.72369235E-04
    2    2    0.79716272E-03  0.80159956E-03
    3    2   -0.10079410E-02 -0.54191588E-03
    1    3   -0.33217716E-03 -0.38903363E-03
    2    3    0.16285973E-02 -0.22996176E-03
    3    3   -0.80091338E-03 -0.14637412E-02

   -5    0    5
    1    1   -0.70125179E-03 -0.57289579E-18
    2    1    0.40027843E-03 -0.32149046E-04
    3    1    0.41552244E-03  0.35266805E-04
    1    2    0.40027843E-03  0.32149046E-04
    2    2   -0.34869723E-04 -0.71481059E-18
    3    2   -0.31703038E-04  0.16272759E-03
    1    3    0.41552244E-03 -0.35266805E-04
    2    3   -0.31703038E-04 -0.16272759E-03
    3    3    0.73612151E-03  0.85479849E-18

   -5    1   -5
    1    1    0.85461900E-03 -0.43064527E-03
    2    1    0.25566701E-03  0.65973129E-03
    3    1   -0.11981900E-02  0.17731957E-04
    1    2   -0.32289651E-03  0.31169845E-03
    2    2   -0.58500072E-03 -0.10211040E-03
    3    2   -0.78598351E-03  0.31331119E-03
    1    3   -0.35668387E-03 -0.34357109E-03
    2    3    0.66846332E-03  0.14996827E-03
    3    3   -0.26961828E-03  0.53275568E-03

   -5    1   -4
    1    1   -0.42077886E-05  0.34147930E-03
    2    1   -0.15942156E-04 -0.20922616E-03
    3    1   -0.28747714E-03 -0.83177033E-03
    1    2   -0.14532566E-03 -0.24204974E-03
    2    2   -0.13441113E-03 -0.11850483E-03
    3    2    0.30420961E-04 -0.65515867E-03
    1    3    0.64667591E-03  0.75956883E-03
    2    3    0.60280167E-03  0.16809790E-03
    3    3    0.13861892E-03 -0.22297447E-03

   -5    1   -3
    1    1    0.14621230E-04  0.12256442E-02
    2    1    0.23663442E-03 -0.20995972E-03
    3    1    0.91050526E-03  0.62310393E-03
    1    2    0.22512112E-03 -0.91691727E-04
    2    2   -0.46985729E-03 -0.34057994E-04
    3    2    0.25285272E-03 -0.52495574E-03
    1    3   -0.18952793E-03 -0.62436251E-03
    2    3   -0.69497474E-03 -0.74685478E-03
    3    3    0.45523606E-03 -0.11915862E-02

   -5    1   -2
    1    1    0.87989320E-04 -0.17658040E-03
    2    1    0.11970535E-02  0.34743376E-03
    3    1   -0.23859734E-03 -0.11272530E-02
    1    2   -0.40917894E-03  0.16354494E-04
    2    2   -0.66882057E-03  0.77231969E-03
    3    2   -0.53178010E-03  0.16154840E-02
    1    3    0.11581426E-02 -0.88650885E-04
    2    3   -0.20418108E-05 -0.12948764E-02
    3    3    0.58083125E-03 -0.59573929E-03

   -5    1   -1
    1    1   -0.79422511E-03 -0.86839312E-03
    2    1    0.11440237E-02  0.39928362E-03
    3    1   -0.96994392E-03 -0.13568429E-02
    1    2   -0.96639173E-03  0.49193764E-03
    2    2   -0.80325667E-03 -0.11686975E-03
    3    2   -0.18849807E-02  0.16369536E-02
    1    3    0.30065595E-03  0.13466647E-02
    2    3    0.19644547E-02 -0.70482327E-03
    3    3    0.15974818E-02  0.98526287E-03

   -5    1    0
    1    1   -0.64911727E-03  0.22841960E-03
    2    1    0.62848902E-03  0.10335679E-02
    3    1    0.55781146E-03  0.18226814E-03
    1    2   -0.14889481E-02  0.28167500E-03
    2    2   -0.39923589E-03  0.68664611E-03
    3    2   -0.11696455E-02  0.96387163E-03
    1    3   -0.21075097E-02  0.55955904E-04
    2    3   -0.39198650E-03  0.77255890E-03
    3    3    0.10483532E-02 -0.91506571E-03

   -5    1    1
    1    1    0.97789326E-04 -0.51803652E-03
    2    1    0.27370543E-03 -0.88187356E-04
    3    1   -0.95622590E-03 -0.80028718E-03
    1    2   -0.24608715E-03 -0.62689347E-03
    2    2   -0.27722126E-04  0.97042136E-03
    3    2   -0.13448034E-02  0.12820032E-02
    1    3    0.11277664E-03  0.37694386E-03
    2    3    0.92804750E-03  0.93676847E-03
    3    3   -0.70067200E-04 -0.45238484E-03

   -5    1    2
    1    1   -0.35468315E-03  0.43152301E-03
    2    1    0.22458895E-04  0.57586977E-03
    3    1   -0.85629900E-03 -0.13690847E-03
    1    2   -0.43823334E-03  0.80609874E-03
    2    2    0.30247491E-03  0.10270586E-02
    3    2   -0.12381840E-02  0.78007603E-03
    1    3   -0.10871730E-02 -0.79462584E-03
    2    3    0.13186877E-02 -0.15616515E-03
    3    3    0.52208241E-04 -0.14585816E-02

   -5    1    3
    1    1    0.72257081E-03  0.17582139E-03
    2    1    0.72898689E-03  0.61676611E-03
    3    1   -0.36971059E-03  0.52757531E-03
    1    2   -0.26814307E-03  0.58360268E-03
    2    2    0.12634412E-03  0.41619602E-03
    3    2   -0.59940849E-03 -0.27583722E-03
    1    3   -0.77244273E-03 -0.10979806E-02
    2    3    0.44472929E-03 -0.62449987E-03
    3    3   -0.84891492E-03 -0.59201741E-03

   -5    1    4
    1    1   -0.22755504E-03  0.16467372E-03
    2    1   -0.34456331E-04  0.33940914E-04
    3    1   -0.13274341E-02 -0.27320525E-03
    1    2   -0.28826999E-03 -0.80769018E-03
    2    2    0.85627097E-03  0.49061858E-03
    3    2    0.71739218E-03 -0.66817397E-04
    1    3    0.47826741E-03 -0.50097097E-03
    2    3    0.64094290E-03 -0.26525513E-04
    3    3   -0.62871593E-03 -0.65529229E-03

   -5    1    5
    1    1   -0.85461900E-03  0.43064527E-03
    2    1   -0.25566701E-03 -0.65973129E-03
    3    1    0.11981900E-02 -0.17731957E-04
    1    2    0.32289651E-03 -0.31169845E-03
    2    2    0.58500072E-03  0.10211040E-03
    3    2    0.78598351E-03 -0.31331119E-03
    1    3    0.35668387E-03  0.34357109E-03
    2    3   -0.66846332E-03 -0.14996827E-03
    3    3    0.26961828E-03 -0.53275568E-03

   -5    2   -5
    1    1    0.83298656E-03 -0.11825467E-03
    2    1    0.10761632E-03  0.56649305E-03
    3    1   -0.54214300E-03 -0.83572341E-04
    1    2   -0.45628326E-04 -0.32385802E-03
    2    2   -0.56338609E-03 -0.27128000E-03
    3    2   -0.96847256E-04  0.42000497E-03
    1    3    0.72954367E-03 -0.37127934E-03
    2    3    0.10562603E-03 -0.16802915E-03
    3    3   -0.26960048E-03  0.38953467E-03

   -5    2   -4
    1    1    0.87775919E-03 -0.12774843E-03
    2    1   -0.20772551E-04 -0.20875512E-03
    3    1    0.78116149E-03 -0.49062350E-03
    1    2    0.86506169E-05  0.69459279E-04
    2    2   -0.23934782E-03 -0.54287220E-03
    3    2    0.77899090E-03  0.10986906E-02
    1    3    0.39268076E-03  0.81446152E-03
    2    3    0.49963409E-03 -0.13931589E-02
    3    3   -0.63841137E-03  0.67062063E-03

   -5    2   -3
    1    1   -0.21682458E-03  0.79990796E-03
    2    1   -0.95744303E-04 -0.23298598E-03
    3    1    0.78339711E-03  0.75511980E-03
    1    2    0.10977634E-03  0.97973678E-04
    2    2   -0.17420792E-03 -0.21481431E-03
    3    2   -0.79524281E-03  0.71429636E-03
    1    3   -0.94335782E-03 -0.89839130E-03
    2    3   -0.51872419E-03 -0.74075318E-03
    3    3    0.39103250E-03 -0.58509365E-03

   -5    2   -2
    1    1   -0.89656670E-03 -0.90304094E-04
    2    1   -0.23527551E-03 -0.75105822E-03
    3    1    0.52780276E-03 -0.63678934E-03
    1    2   -0.35892775E-03 -0.33831599E-03
    2    2    0.22197242E-03 -0.27987109E-03
    3    2    0.83024016E-03  0.18301301E-03
    1    3   -0.48222599E-03  0.47441264E-03
    2    3   -0.68547588E-03  0.18994110E-03
    3    3    0.67459428E-03  0.37017518E-03

   -5    2   -1
    1    1   -0.59213221E-03 -0.11758652E-02
    2    1   -0.67200735E-03  0.53614182E-03
    3    1    0.10759177E-03 -0.95757997E-03
    1    2   -0.87582484E-03  0.61268408E-03
    2    2   -0.41476273E-03 -0.20278873E-03
    3    2   -0.59890812E-03 -0.34906980E-03
    1    3   -0.35240762E-03  0.14920512E-02
    2    3   -0.84423253E-03  0.44521815E-03
    3    3    0.10068949E-02  0.13786539E-02

   -5    2    0
    1    1   -0.49245820E-03 -0.21617799E-03
    2    1    0.15537341E-03  0.64688244E-03
    3    1    0.12914669E-02 -0.10904171E-02
    1    2   -0.92798689E-03 -0.55522118E-04
    2    2   -0.38663986E-03 -0.78352460E-03
    3    2    0.43774506E-03  0.45183068E-03
    1    3   -0.18101843E-02  0.41164260E-03
    2    3   -0.33067334E-02  0.98298273E-03
    3    3    0.87909805E-03  0.99970258E-03

   -5    2    1
    1    1    0.35377387E-03 -0.60677261E-04
    2    1    0.50768045E-03  0.12143339E-02
    3    1   -0.43681414E-03 -0.66055294E-03
    1    2   -0.10648817E-02 -0.27183584E-03
    2    2    0.16119732E-03  0.90203224E-03
    3    2   -0.13050503E-02  0.24765392E-03
    1    3    0.45677711E-04  0.10726968E-03
    2    3   -0.62142672E-03  0.55593255E-03
    3    3   -0.51497118E-03 -0.84135498E-03

   -5    2    2
    1    1   -0.77671136E-03 -0.56755967E-03
    2    1    0.55179276E-03  0.61683367E-03
    3    1    0.67475254E-03 -0.35530810E-03
    1    2    0.30363124E-03  0.78813514E-05
    2    2    0.55897824E-03  0.12665745E-02
    3    2    0.74160214E-03  0.52698742E-03
    1    3   -0.84585879E-03 -0.59602400E-04
    2    3   -0.15009095E-03 -0.84360389E-04
    3    3    0.21773312E-03 -0.69901479E-03

   -5    2    3
    1    1    0.28832301E-04  0.23525663E-03
    2    1    0.18756524E-03  0.68353557E-03
    3    1    0.91498258E-04  0.26118188E-03
    1    2   -0.37930920E-04  0.52794337E-04
    2    2    0.11927783E-03  0.83454601E-03
    3    2   -0.33785848E-03  0.95426489E-03
    1    3    0.16674835E-03 -0.12704472E-02
    2    3   -0.77713410E-03 -0.10771689E-03
    3    3   -0.14811013E-03 -0.10698026E-02

   -5    2    4
    1    1    0.92638442E-03  0.91923386E-05
    2    1   -0.26665408E-03  0.77209266E-04
    3    1   -0.12105606E-02 -0.46816596E-03
    1    2    0.21119151E-03  0.40398066E-03
    2    2    0.29268857E-03 -0.91311009E-04
    3    2    0.54935660E-03  0.11074042E-02
    1    3   -0.22785041E-03  0.93208906E-05
    2    3    0.84107436E-03 -0.82318012E-03
    3    3   -0.12190730E-02  0.82118670E-04

   -5    2    5
    1    1   -0.83298656E-03  0.11825467E-03
    2    1   -0.10761632E-03 -0.56649305E-03
    3    1    0.54214300E-03  0.83572341E-04
    1    2    0.45628326E-04  0.32385802E-03
    2    2    0.56338609E-03  0.27128000E-03
    3    2    0.96847256E-04 -0.42000497E-03
    1    3   -0.72954367E-03  0.37127934E-03
    2    3   -0.10562603E-03  0.16802915E-03
    3    3    0.26960048E-03 -0.38953467E-03

   -5    3   -5
    1    1    0.73739317E-03  0.36173482E-03
    2    1    0.45871950E-03 -0.16832349E-03
    3    1   -0.89612315E-03 -0.12945856E-04
    1    2    0.42601590E-03  0.10142674E-03
    2    2    0.61092215E-04 -0.26421355E-03
    3    2   -0.23273541E-03  0.21327290E-03
    1    3   -0.32122584E-03  0.42107204E-03
    2    3   -0.91960067E-04 -0.12481501E-03
    3    3   -0.79848539E-03 -0.97521269E-04

   -5    3   -4
    1    1    0.84241201E-03 -0.82933842E-03
    2    1    0.24417364E-04 -0.63075895E-03
    3    1   -0.14895228E-03  0.22495846E-03
    1    2   -0.75078872E-04  0.15352722E-03
    2    2    0.75266155E-04  0.10496669E-03
    3    2    0.19752924E-03  0.58596814E-03
    1    3   -0.35370160E-03  0.35206418E-03
    2    3    0.82850782E-03 -0.42036982E-03
    3    3   -0.91767817E-03  0.72437173E-03

   -5    3   -3
    1    1   -0.10961060E-02  0.38476912E-03
    2    1    0.16368584E-03  0.15052932E-03
    3    1    0.60185691E-03  0.32482549E-03
    1    2   -0.27387797E-03  0.24113734E-03
    2    2    0.31525850E-03 -0.65849343E-03
    3    2   -0.51592944E-03  0.21895551E-03
    1    3    0.89701829E-03  0.87338785E-04
    2    3   -0.31035619E-03 -0.50564335E-03
    3    3    0.78084754E-03  0.27372431E-03

   -5    3   -2
    1    1    0.74816599E-04  0.10019984E-02
    2    1   -0.99513471E-04 -0.30425565E-03
    3    1    0.49632380E-03 -0.11750352E-02
    1    2   -0.54063667E-03 -0.44197773E-03
    2    2   -0.49445572E-03 -0.84902212E-03
    3    2    0.12480700E-02 -0.31634275E-03
    1    3    0.71349297E-03  0.63771760E-03
    2    3   -0.55161048E-03  0.23780045E-03
    3    3    0.41963912E-03 -0.15297630E-03

   -5    3   -1
    1    1   -0.58945327E-03 -0.69788929E-03
    2    1   -0.18905087E-03  0.17922329E-03
    3    1    0.57321362E-03 -0.57530513E-03
    1    2   -0.92233319E-03 -0.74419361E-03
    2    2   -0.38854119E-04 -0.47897300E-03
    3    2    0.61007815E-03 -0.45119020E-04
    1    3   -0.10085915E-02 -0.89718598E-04
    2    3   -0.88515718E-03  0.39009576E-03
    3    3    0.62830739E-03  0.11768623E-02

   -5    3    0
    1    1   -0.78216557E-03 -0.44163407E-04
    2    1    0.28622222E-03  0.12661690E-02
    3    1    0.15022786E-03 -0.43544096E-03
    1    2   -0.18263496E-03  0.37940458E-04
    2    2    0.26591387E-03  0.39758012E-03
    3    2    0.91714083E-03 -0.14480521E-03
    1    3   -0.27880898E-03  0.30404862E-03
    2    3   -0.12153833E-02  0.64344707E-03
    3    3    0.51625171E-03 -0.35341671E-03

   -5    3    1
    1    1    0.45718391E-04  0.32590502E-03
    2    1    0.10824557E-03  0.58264880E-03
    3    1   -0.67950015E-03 -0.95442611E-03
    1    2    0.22665991E-03  0.56161743E-03
    2    2   -0.20251568E-03 -0.48835371E-03
    3    2    0.68436134E-03  0.84239853E-04
    1    3   -0.53817873E-03 -0.40144022E-03
    2    3   -0.14285020E-02  0.13430811E-02
    3    3    0.15679729E-03  0.16244869E-03

   -5    3    2
    1    1   -0.11321745E-03 -0.40402851E-03
    2    1   -0.29964638E-03  0.91742478E-05
    3    1   -0.92376184E-03 -0.30083930E-04
    1    2    0.94662441E-04  0.25030058E-03
    2    2   -0.81131197E-04  0.52505027E-04
    3    2    0.13487567E-02  0.60350287E-05
    1    3   -0.81815166E-03 -0.59926552E-04
    2    3   -0.54398302E-03  0.74550778E-03
    3    3    0.19434865E-03  0.35152349E-03

   -5    3    3
    1    1   -0.72322730E-03  0.43009629E-03
    2    1    0.29761916E-03 -0.99345836E-05
    3    1   -0.11149995E-02  0.63019611E-03
    1    2   -0.32017792E-03 -0.10796968E-03
    2    2    0.36362590E-03  0.77980956E-04
    3    2   -0.67987561E-03  0.69959610E-04
    1    3   -0.22133455E-03 -0.91282918E-03
    2    3   -0.25123139E-03  0.94272136E-04
    3    3    0.35960140E-03 -0.50807724E-03

   -5    3    4
    1    1    0.86781552E-03 -0.18380713E-04
    2    1   -0.44176172E-04 -0.43258297E-04
    3    1   -0.17170728E-03 -0.42438247E-03
    1    2    0.10307300E-03 -0.57527549E-04
    2    2   -0.41044620E-04  0.63705676E-03
    3    2    0.41679310E-03 -0.60416961E-04
    1    3    0.15665002E-03  0.53267116E-03
    2    3    0.95012384E-03 -0.16919734E-03
    3    3   -0.82677090E-03 -0.61867605E-03

   -5    3    5
    1    1   -0.73739317E-03 -0.36173482E-03
    2    1   -0.45871950E-03  0.16832349E-03
    3    1    0.89612315E-03  0.12945856E-04
    1    2   -0.42601590E-03 -0.10142674E-03
    2    2   -0.61092215E-04  0.26421355E-03
    3    2    0.23273541E-03 -0.21327290E-03
    1    3    0.32122584E-03 -0.42107204E-03
    2    3    0.91960067E-04  0.12481501E-03
    3    3    0.79848539E-03  0.97521269E-04

   -5    4   -5
    1    1    0.11455857E-03  0.26010779E-03
    2    1    0.43612300E-03 -0.27676604E-03
    3    1    0.10099925E-02 -0.14331155E-04
    1    2   -0.10331393E-03 -0.98239611E-04
    2    2    0.44328258E-03 -0.32261997E-03
    3    2   -0.33956999E-03 -0.13023591E-03
    1    3    0.10137525E-02  0.22367462E-03
    2    3    0.41648571E-03 -0.43689757E-03
    3    3   -0.55784115E-03  0.62512178E-04

   -5    4   -4
    1    1    0.24749182E-03 -0.98729428E-04
    2    1   -0.17166345E-04  0.37196583E-03
    3    1    0.46660928E-03  0.46653951E-04
    1    2   -0.44261919E-03 -0.78663478E-03
    2    2    0.11011208E-03 -0.47199127E-03
    3    2    0.53712349E-03 -0.14653268E-03
    1    3   -0.61790498E-03  0.69560499E-04
    2    3    0.30092058E-03  0.16355604E-03
    3    3   -0.35760391E-03  0.57072069E-03

   -5    4   -3
    1    1   -0.65606984E-03  0.60808466E-04
    2    1   -0.19742313E-03  0.16375610E-04
    3    1   -0.10289188E-02 -0.26215418E-03
    1    2   -0.43803335E-03 -0.66249841E-03
    2    2   -0.26178566E-03 -0.56296020E-03
    3    2    0.25619068E-03 -0.93185903E-04
    1    3   -0.27750244E-03  0.86133053E-03
    2    3    0.86615616E-03  0.39750295E-03
    3    3    0.91785550E-03  0.50215174E-03

   -5    4   -2
    1    1   -0.63942251E-04 -0.44901120E-04
    2    1   -0.16639763E-03 -0.95915388E-04
    3    1   -0.36794141E-03 -0.99205906E-03
    1    2   -0.34144140E-03  0.35346313E-03
    2    2   -0.36564045E-03  0.42870854E-03
    3    2   -0.79318942E-03  0.51834483E-03
    1    3   -0.10261807E-02  0.38834242E-03
    2    3    0.74207045E-04 -0.23797815E-04
    3    3    0.42958270E-03 -0.38380742E-03

   -5    4   -1
    1    1   -0.30095313E-03 -0.29511002E-03
    2    1   -0.50262204E-03 -0.15101299E-04
    3    1   -0.55191747E-04  0.38570890E-03
    1    2    0.36395452E-03  0.15521725E-03
    2    2   -0.17216295E-03 -0.29957533E-04
    3    2   -0.76570907E-03  0.28281780E-03
    1    3   -0.40564618E-03 -0.49889035E-03
    2    3    0.10963401E-02 -0.60011670E-04
    3    3    0.47311608E-03  0.32506756E-03

   -5    4    0
    1    1   -0.60657292E-03  0.48886416E-03
    2    1   -0.23465194E-03 -0.12122976E-03
    3    1   -0.52098538E-03 -0.31056286E-03
    1    2   -0.69053146E-03  0.38052837E-03
    2    2    0.49488541E-04  0.85210680E-03
    3    2   -0.82990164E-03  0.53112600E-03
    1    3    0.13610018E-02 -0.97088907E-03
    2    3   -0.28112767E-03  0.15866044E-03
    3    3    0.55708438E-03 -0.13409710E-02

   -5    4    1
    1    1    0.99308958E-04  0.25426191E-03
    2    1   -0.79818638E-03 -0.58416554E-04
    3    1    0.57667470E-04 -0.13432851E-03
    1    2   -0.12761789E-03  0.27434204E-03
    2    2    0.15115191E-03 -0.63423703E-03
    3    2   -0.57676238E-03  0.26935536E-03
    1    3    0.23497472E-03  0.40480320E-03
    2    3    0.40788051E-03 -0.10320897E-02
    3    3   -0.25046087E-03  0.37997512E-03

   -5    4    2
    1    1    0.15248286E-03 -0.10867909E-02
    2    1   -0.40255458E-03  0.93038559E-03
    3    1    0.11736181E-03  0.41714406E-03
    1    2   -0.46546041E-03 -0.67998803E-03
    2    2    0.21294318E-03  0.35826750E-03
    3    2   -0.19019446E-03  0.66076770E-03
    1    3    0.13675648E-02 -0.74226705E-04
    2    3   -0.48540958E-03 -0.39501100E-03
    3    3   -0.36542604E-03  0.72852338E-03

   -5    4    3
    1    1   -0.49029115E-03  0.49752420E-04
    2    1   -0.35395314E-03  0.28685197E-03
    3    1    0.57142450E-04 -0.21912987E-03
    1    2   -0.17510665E-03 -0.45297725E-03
    2    2   -0.79207138E-04 -0.16594233E-03
    3    2    0.51410325E-03  0.20956578E-03
    1    3    0.11079198E-02 -0.14646513E-04
    2    3    0.77917196E-04  0.96464243E-04
    3    3    0.56949829E-03  0.11618991E-03

   -5    4    4
    1    1   -0.70433513E-04  0.58209920E-03
    2    1   -0.28235686E-03  0.31983351E-03
    3    1    0.39229993E-03 -0.82157260E-03
    1    2    0.41846165E-03 -0.13043072E-03
    2    2   -0.16880751E-03  0.97982323E-04
    3    2    0.90717259E-03 -0.43943122E-04
    1    3   -0.71365347E-03  0.37941332E-03
    2    3   -0.65736533E-03  0.36831737E-03
    3    3    0.23924103E-03 -0.68008152E-03

   -5    4    5
    1    1   -0.11455857E-03 -0.26010779E-03
    2    1   -0.43612300E-03  0.27676604E-03
    3    1   -0.10099925E-02  0.14331155E-04
    1    2    0.10331393E-03  0.98239611E-04
    2    2   -0.44328258E-03  0.32261997E-03
    3    2    0.33956999E-03  0.13023591E-03
    1    3   -0.10137525E-02 -0.22367462E-03
    2    3   -0.41648571E-03  0.43689757E-03
    3    3    0.55784115E-03 -0.62512178E-04

   -5    5   -5
    1    1   -0.54048936E-15  0.66893622E-04
    2    1   -0.15161250E-03 -0.18481309E-03
    3    1   -0.11030120E-03 -0.16649634E-03
    1    2    0.15161250E-03 -0.18481309E-03
    2    2   -0.52715796E-15 -0.37350780E-03
    3    2   -0.11376358E-04 -0.29036211E-04
    1    3    0.11030120E-03 -0.16649634E-03
    2    3    0.11376358E-04 -0.29036211E-04
    3    3   -0.53363166E-15  0.30661418E-03

   -5    5   -4
    1    1   -0.37069197E-03 -0.16159321E-03
    2    1    0.20223778E-04 -0.67209551E-03
    3    1   -0.26975098E-03 -0.34618232E-03
    1    2    0.12584490E-03  0.59765119E-04
    2    2   -0.92031012E-04 -0.25461222E-03
    3    2   -0.94002869E-03  0.10896242E-03
    1    3   -0.82771871E-04  0.52740145E-03
    2    3   -0.12050277E-02  0.14697983E-04
    3    3    0.46272299E-03  0.41620542E-03

   -5    5   -3
    1    1   -0.16578492E-03 -0.89823526E-04
    2    1   -0.34966393E-03 -0.55581384E-03
    3    1    0.35955283E-04 -0.47081859E-03
    1    2   -0.36384787E-03  0.24942212E-03
    2    2   -0.15786306E-03  0.88112205E-04
    3    2    0.27969451E-03 -0.80421518E-04
    1    3   -0.11825863E-03  0.88666827E-03
    2    3    0.56899394E-03  0.10816493E-03
    3    3    0.32364798E-03  0.17113207E-05

   -5    5   -2
    1    1   -0.15884770E-03  0.17627761E-03
    2    1   -0.10872594E-03  0.34276392E-03
    3    1    0.67388452E-03  0.33680787E-04
    1    2   -0.19202997E-03  0.12048183E-03
    2    2    0.43059796E-03  0.32960264E-03
    3    2   -0.16957377E-03 -0.76694681E-03
    1    3   -0.22417103E-03 -0.15433164E-04
    2    3    0.44423044E-03  0.50589873E-03
    3    3   -0.27175026E-03 -0.50588025E-03

   -5    5   -1
    1    1    0.15844414E-03  0.29320060E-03
    2    1   -0.45209665E-03  0.83350677E-03
    3    1   -0.42978993E-03  0.70228996E-03
    1    2    0.12734611E-04 -0.21569968E-03
    2    2    0.14744370E-03 -0.36506332E-03
    3    2    0.13446366E-02 -0.12340000E-02
    1    3    0.52362219E-03 -0.36887708E-03
    2    3    0.12008349E-02  0.11340943E-02
    3    3   -0.30588783E-03  0.71862723E-04

   -5    5    0
    1    1   -0.10829956E-02  0.12942821E-17
    2    1   -0.36220822E-03  0.39060840E-03
    3    1    0.10651663E-03  0.76066126E-03
    1    2   -0.36220822E-03 -0.39060840E-03
    2    2    0.26685056E-03 -0.54898379E-18
    3    2    0.75858999E-03 -0.93184319E-03
    1    3    0.10651663E-03 -0.76066126E-03
    2    3    0.75858999E-03  0.93184319E-03
    3    3    0.81614500E-03  0.10306124E-17

   -5    5    1
    1    1    0.15844414E-03 -0.29320060E-03
    2    1    0.12734611E-04  0.21569968E-03
    3    1    0.52362219E-03  0.36887708E-03
    1    2   -0.45209665E-03 -0.83350677E-03
    2    2    0.14744370E-03  0.36506332E-03
    3    2    0.12008349E-02 -0.11340943E-02
    1    3   -0.42978993E-03 -0.70228996E-03
    2    3    0.13446366E-02  0.12340000E-02
    3    3   -0.30588783E-03 -0.71862723E-04

   -5    5    2
    1    1   -0.15884770E-03 -0.17627761E-03
    2    1   -0.19202997E-03 -0.12048183E-03
    3    1   -0.22417103E-03  0.15433164E-04
    1    2   -0.10872594E-03 -0.34276392E-03
    2    2    0.43059796E-03 -0.32960264E-03
    3    2    0.44423044E-03 -0.50589873E-03
    1    3    0.67388452E-03 -0.33680787E-04
    2    3   -0.16957377E-03  0.76694681E-03
    3    3   -0.27175026E-03  0.50588025E-03

   -5    5    3
    1    1   -0.16578492E-03  0.89823526E-04
    2    1   -0.36384787E-03 -0.24942212E-03
    3    1   -0.11825863E-03 -0.88666827E-03
    1    2   -0.34966393E-03  0.55581384E-03
    2    2   -0.15786306E-03 -0.88112205E-04
    3    2    0.56899394E-03 -0.10816493E-03
    1    3    0.35955283E-04  0.47081859E-03
    2    3    0.27969451E-03  0.80421518E-04
    3    3    0.32364798E-03 -0.17113207E-05

   -5    5    4
    1    1   -0.37069197E-03  0.16159321E-03
    2    1    0.12584490E-03 -0.59765119E-04
    3    1   -0.82771871E-04 -0.52740145E-03
    1    2    0.20223778E-04  0.67209551E-03
    2    2   -0.92031012E-04  0.25461222E-03
    3    2   -0.12050277E-02 -0.14697983E-04
    1    3   -0.26975098E-03  0.34618232E-03
    2    3   -0.94002869E-03 -0.10896242E-03
    3    3    0.46272299E-03 -0.41620542E-03

   -5    5    5
    1    1   -0.53787549E-15 -0.66893622E-04
    2    1    0.15161250E-03  0.18481309E-03
    3    1    0.11030120E-03  0.16649634E-03
    1    2   -0.15161250E-03  0.18481309E-03
    2    2   -0.52981716E-15  0.37350780E-03
    3    2    0.11376358E-04  0.29036211E-04
    1    3   -0.11030120E-03  0.16649634E-03
    2    3   -0.11376358E-04  0.29036211E-04
    3    3   -0.53032930E-15 -0.30661418E-03

   -4   -5   -5
    1    1    0.47256964E-03 -0.20972268E-03
    2    1    0.13930119E-02  0.40904983E-04
    3    1   -0.10977835E-03 -0.19848469E-03
    1    2    0.57925168E-03 -0.96173089E-04
    2    2   -0.10131053E-03 -0.33753338E-03
    3    2   -0.50873101E-03 -0.41312413E-03
    1    3   -0.65006847E-04  0.35546969E-03
    2    3    0.59462822E-04  0.12116923E-03
    3    3   -0.37125911E-03  0.54725606E-03

   -4   -5   -4
    1    1   -0.99858095E-03 -0.47474345E-03
    2    1    0.64536264E-03  0.91997718E-04
    3    1   -0.44246428E-03  0.24766328E-03
    1    2   -0.77390469E-03 -0.70262552E-03
    2    2    0.23947019E-03 -0.35119527E-03
    3    2   -0.66375549E-03 -0.38297702E-03
    1    3   -0.43107242E-04  0.60380835E-03
    2    3    0.72366085E-03  0.16577690E-03
    3    3    0.75911076E-03  0.82593872E-03

   -4   -5   -3
    1    1   -0.33278719E-03  0.55954351E-03
    2    1   -0.83152214E-03  0.41357577E-03
    3    1    0.57700589E-03 -0.53109562E-03
    1    2   -0.74558973E-03 -0.60252509E-04
    2    2   -0.14088191E-03  0.51694943E-04
    3    2   -0.32178493E-03 -0.10143347E-03
    1    3   -0.24434400E-04  0.84639965E-04
    2    3    0.43403116E-03 -0.72449671E-04
    3    3    0.47366910E-03 -0.61123845E-03

   -4   -5   -2
    1    1    0.69193908E-03 -0.33672493E-03
    2    1   -0.79922098E-03 -0.44832541E-03
    3    1    0.47155480E-03 -0.50407188E-03
    1    2   -0.10023300E-02  0.13855310E-03
    2    2   -0.51191974E-03  0.55627372E-03
    3    2    0.53855018E-03  0.61005381E-03
    1    3   -0.32726390E-03  0.32133583E-03
    2    3    0.37636283E-03 -0.63657443E-03
    3    3   -0.18001934E-03 -0.21954880E-03

   -4   -5   -1
    1    1   -0.51616889E-03 -0.16942265E-03
    2    1   -0.30314744E-03  0.16443400E-03
    3    1    0.31113542E-03  0.86497829E-03
    1    2   -0.69664383E-03 -0.35857054E-03
    2    2    0.10046563E-04  0.70425959E-03
    3    2    0.70884822E-03  0.53558838E-03
    1    3    0.35626105E-03 -0.13573835E-02
    2    3   -0.48333262E-03 -0.90049769E-03
    3    3    0.50612233E-03 -0.53483694E-03

   -4   -5    0
    1    1   -0.63201800E-03  0.52582885E-03
    2    1   -0.11989868E-02 -0.10997755E-02
    3    1    0.52776636E-03  0.28554321E-03
    1    2    0.51485013E-03 -0.71243110E-03
    2    2    0.19186328E-03 -0.28395968E-03
    3    2    0.85202847E-03  0.18137718E-03
    1    3   -0.48408948E-03 -0.28775833E-03
    2    3    0.34558450E-03  0.27129638E-04
    3    3    0.44015472E-03 -0.24186916E-03

   -4   -5    1
    1    1    0.32360142E-03 -0.37770653E-03
    2    1   -0.31057884E-03 -0.78996721E-03
    3    1   -0.26102537E-03 -0.39716383E-03
    1    2   -0.15524510E-03 -0.67024676E-04
    2    2   -0.86976368E-04  0.46035377E-03
    3    2    0.10114795E-02 -0.48906427E-03
    1    3    0.87931066E-03  0.55405627E-03
    2    3   -0.13770591E-02  0.14191597E-03
    3    3   -0.23662505E-03 -0.82647237E-04

   -4   -5    2
    1    1   -0.62143737E-03 -0.44281805E-03
    2    1    0.50919415E-03  0.46503278E-03
    3    1    0.47584639E-03 -0.77845206E-04
    1    2    0.12860980E-03 -0.43898993E-03
    2    2    0.42429840E-03  0.33271957E-03
    3    2    0.78060106E-03 -0.35537081E-03
    1    3   -0.24130226E-03  0.78812725E-05
    2    3    0.32172709E-03 -0.73713745E-04
    3    3    0.19713897E-03  0.11009848E-03

   -4   -5    3
    1    1   -0.29731818E-04  0.47983793E-03
    2    1    0.13856041E-03  0.12400332E-02
    3    1   -0.29115597E-03 -0.69541044E-03
    1    2    0.50212860E-03 -0.15616663E-03
    2    2    0.11296068E-04  0.82746556E-04
    3    2    0.14244110E-03 -0.30353063E-03
    1    3   -0.16304360E-03  0.51172724E-04
    2    3   -0.32930089E-03 -0.11283431E-03
    3    3    0.18435750E-04 -0.56258449E-03

   -4   -5    4
    1    1    0.13030589E-03 -0.45918427E-03
    2    1   -0.11056162E-03 -0.51789469E-04
    3    1   -0.29624130E-03 -0.59366179E-03
    1    2   -0.48987567E-03  0.30083793E-03
    2    2   -0.26205241E-03  0.13750285E-03
    3    2    0.13021220E-03  0.15378385E-03
    1    3    0.32215777E-03  0.47893015E-03
    2    3    0.15931969E-03 -0.84316870E-04
    3    3    0.13174652E-03  0.32168142E-03

   -4   -5    5
    1    1   -0.47256964E-03  0.20972268E-03
    2    1   -0.13930119E-02 -0.40904983E-04
    3    1    0.10977835E-03  0.19848469E-03
    1    2   -0.57925168E-03  0.96173089E-04
    2    2    0.10131053E-03  0.33753338E-03
    3    2    0.50873101E-03  0.41312413E-03
    1    3    0.65006847E-04 -0.35546969E-03
    2    3   -0.59462822E-04 -0.12116923E-03
    3    3    0.37125911E-03 -0.54725606E-03

   -4   -4   -5
    1    1    0.71393887E-04 -0.66758331E-03
    2    1   -0.44366916E-03 -0.53161498E-03
    3    1   -0.47434979E-03 -0.85346474E-04
    1    2   -0.35705348E-04 -0.20840188E-04
    2    2   -0.20832734E-03  0.56287879E-03
    3    2    0.31992438E-04  0.46260629E-03
    1    3    0.10073772E-03  0.58849234E-04
    2    3   -0.11192294E-03  0.57930581E-04
    3    3    0.13693345E-03  0.10470452E-03

   -4   -4   -4
    1    1   -0.20502915E-03 -0.51445157E-03
    2    1   -0.40398433E-03 -0.52355783E-04
    3    1   -0.82593191E-04  0.24311651E-04
    1    2   -0.86067280E-04 -0.33002353E-03
    2    2    0.29286904E-03 -0.26647071E-03
    3    2    0.52412341E-03  0.11166829E-03
    1    3    0.21626418E-03  0.56787987E-03
    2    3   -0.89274018E-04  0.31014963E-03
    3    3    0.79165595E-05  0.78092228E-03

   -4   -4   -3
    1    1   -0.25597640E-02  0.56397485E-03
    2    1    0.46686797E-03  0.42818128E-03
    3    1    0.75730525E-03 -0.56809494E-04
    1    2    0.14812537E-03 -0.41507664E-03
    2    2    0.16027443E-02 -0.67996732E-03
    3    2   -0.17486336E-03  0.20035196E-04
    1    3   -0.15744566E-03 -0.13768686E-03
    2    3    0.95532011E-04  0.16445450E-03
    3    3    0.96625262E-03  0.11599247E-03

   -4   -4   -2
    1    1    0.18987582E-02 -0.33786541E-04
    2    1    0.45466433E-03 -0.37242312E-04
    3    1    0.49212710E-03 -0.16186592E-03
    1    2   -0.65131171E-04 -0.70051974E-04
    2    2   -0.55766656E-03 -0.21257147E-03
    3    2    0.13232121E-04 -0.60338412E-03
    1    3   -0.65335788E-03  0.98772118E-04
    2    3    0.74763205E-03  0.36007437E-03
    3    3   -0.13000950E-02  0.24635801E-03

   -4   -4   -1
    1    1    0.42796956E-03 -0.65523150E-03
    2    1   -0.51004017E-03  0.24011597E-03
    3    1    0.17496758E-03  0.44138157E-03
    1    2    0.55208131E-04 -0.38626607E-03
    2    2   -0.64231143E-03 -0.55531582E-03
    3    2   -0.20284237E-03 -0.41578185E-03
    1    3   -0.45176334E-03 -0.11494148E-03
    2    3   -0.72817300E-04  0.56453400E-03
    3    3    0.15483030E-03  0.12105473E-02

   -4   -4    0
    1    1   -0.43134284E-02  0.76996538E-04
    2    1   -0.37310884E-04  0.63101981E-03
    3    1    0.18761618E-03  0.11025210E-03
    1    2   -0.99254345E-03 -0.18400303E-03
    2    2    0.13763739E-02  0.25642306E-03
    3    2    0.67169796E-03 -0.28730867E-03
    1    3   -0.73304206E-03  0.36312727E-03
    2    3    0.19662556E-03  0.11947946E-04
    3    3    0.29085225E-02 -0.33341960E-03

   -4   -4    1
    1    1    0.12159672E-02 -0.36630875E-03
    2    1    0.29797951E-03  0.20570855E-03
    3    1    0.13042113E-03 -0.19819076E-03
    1    2   -0.91721951E-03 -0.91035258E-03
    2    2   -0.12522079E-02  0.65083235E-03
    3    2    0.14166525E-03  0.44617309E-03
    1    3   -0.18898023E-03 -0.55450888E-03
    2    3   -0.13896595E-03 -0.10689521E-03
    3    3   -0.23270784E-04 -0.28452360E-03

   -4   -4    2
    1    1    0.10035134E-02  0.29102993E-03
    2    1   -0.68256250E-03 -0.67701223E-04
    3    1    0.34755117E-05 -0.49345936E-03
    1    2   -0.79515611E-03  0.24823562E-04
    2    2   -0.12073315E-02  0.64465176E-03
    3    2    0.33924763E-03  0.59377683E-03
    1    3   -0.38108350E-03  0.28948779E-03
    2    3    0.30587908E-03 -0.47792845E-03
    3    3    0.24481471E-03 -0.93568169E-03

   -4   -4    3
    1    1   -0.25431340E-02 -0.15460011E-04
    2    1   -0.62465817E-03 -0.49941072E-03
    3    1   -0.45553903E-03  0.13385927E-05
    1    2   -0.47183693E-03  0.45117810E-04
    2    2    0.12896536E-02  0.60768280E-03
    3    2   -0.51857699E-03  0.57865357E-03
    1    3   -0.24534831E-03 -0.33839719E-03
    2    3   -0.38549500E-04 -0.20428781E-03
    3    3    0.12627133E-02 -0.59222279E-03

   -4   -4    4
    1    1    0.66438050E-03 -0.40808673E-03
    2    1    0.42091263E-04 -0.16080295E-03
    3    1    0.14624925E-03 -0.59649827E-03
    1    2   -0.13499177E-03  0.35229381E-03
    2    2    0.41774481E-03  0.15583859E-03
    3    2    0.44695669E-04 -0.91203168E-04
    1    3   -0.13451671E-03  0.86176879E-03
    2    3    0.18630774E-04  0.32935271E-03
    3    3   -0.98636886E-03  0.25224814E-03

   -4   -4    5
    1    1   -0.71393887E-04  0.66758331E-03
    2    1    0.44366916E-03  0.53161498E-03
    3    1    0.47434979E-03  0.85346474E-04
    1    2    0.35705348E-04  0.20840188E-04
    2    2    0.20832734E-03 -0.56287879E-03
    3    2   -0.31992438E-04 -0.46260629E-03
    1    3   -0.10073772E-03 -0.58849234E-04
    2    3    0.11192294E-03 -0.57930581E-04
    3    3   -0.13693345E-03 -0.10470452E-03

   -4   -3   -5
    1    1   -0.48217539E-03  0.17527842E-03
    2    1   -0.41956378E-03 -0.25447498E-03
    3    1   -0.78286462E-03  0.35003642E-03
    1    2   -0.51161912E-03 -0.10230024E-03
    2    2    0.15646644E-03 -0.15175809E-03
    3    2   -0.64682716E-03 -0.27868206E-03
    1    3   -0.12258922E-03  0.93291174E-04
    2    3    0.24256188E-03  0.31286981E-04
    3    3    0.32570895E-03 -0.23520328E-04

   -4   -3   -4
    1    1    0.16872664E-02 -0.64514412E-03
    2    1    0.37995538E-03 -0.48343693E-03
    3    1   -0.11280411E-03  0.12519136E-03
    1    2    0.65356085E-03  0.15998097E-03
    2    2   -0.23331739E-02  0.11327673E-03
    3    2    0.71211472E-04  0.32982163E-04
    1    3   -0.39736868E-04  0.15043150E-03
    2    3    0.17441600E-04 -0.35463649E-03
    3    3    0.65514041E-03  0.53186739E-03

   -4   -3   -3
    1    1   -0.34310864E-03  0.35273035E-04
    2    1    0.11053704E-02 -0.24413267E-03
    3    1    0.66600156E-04  0.56846970E-03
    1    2    0.49496843E-03 -0.21222345E-03
    2    2    0.52357020E-03 -0.12800780E-03
    3    2   -0.33918292E-03  0.26216684E-03
    1    3   -0.18521843E-03  0.14184452E-03
    2    3    0.29443804E-03 -0.64583620E-03
    3    3   -0.15890754E-03  0.92734761E-04

   -4   -3   -2
    1    1   -0.64309871E-03  0.21007557E-03
    2    1    0.37273424E-03  0.24189504E-03
    3    1   -0.54455108E-04 -0.19193811E-03
    1    2    0.48953582E-03 -0.17044681E-02
    2    2    0.35436586E-02 -0.26925521E-03
    3    2   -0.67299672E-03 -0.40604252E-03
    1    3   -0.37611987E-03 -0.76941449E-03
    2    3    0.31980020E-03 -0.49919759E-03
    3    3   -0.29216269E-02  0.59179639E-04

   -4   -3   -1
    1    1   -0.11341905E-02 -0.18491501E-03
    2    1   -0.23392479E-03 -0.99004993E-03
    3    1    0.24753921E-03 -0.37469584E-03
    1    2   -0.82230986E-03 -0.78717452E-03
    2    2    0.62305278E-02 -0.19137374E-02
    3    2   -0.21138317E-02 -0.53494723E-03
    1    3    0.53138843E-03  0.14329756E-02
    2    3    0.84391872E-03  0.97389459E-04
    3    3   -0.51355154E-02  0.20986524E-02

   -4   -3    0
    1    1   -0.19778615E-03  0.30048083E-03
    2    1    0.53010242E-03  0.32794916E-03
    3    1   -0.48084877E-03 -0.41093061E-03
    1    2   -0.27302690E-02 -0.10743466E-02
    2    2    0.47089035E-02  0.21452154E-03
    3    2   -0.19478905E-02 -0.10702338E-02
    1    3    0.11621102E-02  0.49765202E-03
    2    3    0.57243118E-03 -0.60595413E-03
    3    3   -0.47318510E-02 -0.51500237E-03

   -4   -3    1
    1    1   -0.62456530E-03  0.64010642E-03
    2    1   -0.12840200E-02 -0.28850088E-03
    3    1   -0.96042872E-03 -0.50011158E-04
    1    2   -0.17504441E-02  0.72034504E-03
    2    2    0.59842918E-02 -0.60144853E-03
    3    2   -0.29010756E-02 -0.64505303E-03
    1    3    0.47890313E-03  0.95402037E-03
    2    3    0.19216291E-02 -0.86837450E-04
    3    3   -0.53989047E-02 -0.38657889E-04

   -4   -3    2
    1    1   -0.90583629E-03  0.33550698E-05
    2    1   -0.58337413E-03 -0.16738421E-04
    3    1   -0.74515021E-03 -0.48473844E-03
    1    2   -0.26379636E-02 -0.21092573E-03
    2    2    0.16465873E-02  0.21314683E-03
    3    2   -0.10504307E-02 -0.10011520E-02
    1    3    0.50426160E-03  0.26248046E-03
    2    3    0.57123379E-03  0.53192434E-03
    3    3   -0.76181803E-03 -0.21650190E-03

   -4   -3    3
    1    1   -0.52559688E-03  0.16692629E-03
    2    1   -0.30436508E-03 -0.63966574E-03
    3    1   -0.56440937E-03  0.24479917E-03
    1    2   -0.14324877E-02  0.49393460E-03
    2    2   -0.82099321E-03  0.27127076E-04
    3    2   -0.68622416E-03  0.22680428E-03
    1    3    0.10325194E-02 -0.61203771E-04
    2    3    0.90635149E-03 -0.55358673E-03
    3    3    0.13681441E-02 -0.19405337E-03

   -4   -3    4
    1    1    0.21356400E-02 -0.13449482E-03
    2    1   -0.25476434E-04  0.43465687E-03
    3    1    0.58870718E-03  0.88958941E-04
    1    2   -0.12943688E-04 -0.79944300E-04
    2    2   -0.26418006E-02  0.29333179E-03
    3    2    0.33364114E-03  0.25398627E-03
    1    3   -0.30536612E-03 -0.68257117E-04
    2    3   -0.15796475E-03 -0.86758683E-03
    3    3    0.51539341E-03 -0.15883697E-03

   -4   -3    5
    1    1    0.48217539E-03 -0.17527842E-03
    2    1    0.41956378E-03  0.25447498E-03
    3    1    0.78286462E-03 -0.35003642E-03
    1    2    0.51161912E-03  0.10230024E-03
    2    2   -0.15646644E-03  0.15175809E-03
    3    2    0.64682716E-03  0.27868206E-03
    1    3    0.12258922E-03 -0.93291174E-04
    2    3   -0.24256188E-03 -0.31286981E-04
    3    3   -0.32570895E-03  0.23520328E-04

   -4   -2   -5
    1    1   -0.23519235E-03  0.46226134E-03
    2    1   -0.20479480E-03  0.14880810E-02
    3    1   -0.17371039E-03  0.18505524E-03
    1    2   -0.80946176E-03 -0.10887146E-02
    2    2    0.72560499E-03 -0.28487417E-03
    3    2   -0.17737880E-03  0.71316440E-04
    1    3    0.75196461E-04 -0.11747326E-03
    2    3    0.75272945E-03 -0.76396907E-04
    3    3   -0.49041263E-03 -0.17738717E-03

   -4   -2   -4
    1    1   -0.67104718E-03 -0.12773502E-02
    2    1   -0.25559639E-03  0.59926051E-03
    3    1   -0.26631330E-03  0.12616936E-03
    1    2    0.58677164E-03 -0.72649779E-04
    2    2    0.20495353E-02  0.51444307E-03
    3    2    0.12908292E-03  0.83241082E-03
    1    3   -0.14597693E-03 -0.54219281E-03
    2    3   -0.23280587E-04  0.45007922E-03
    3    3   -0.13374914E-02  0.76290708E-03

   -4   -2   -3
    1    1    0.27760989E-02 -0.40230807E-03
    2    1    0.17545710E-03 -0.36594972E-03
    3    1   -0.67998144E-03  0.49594910E-03
    1    2    0.97959291E-03  0.21621456E-03
    2    2   -0.97866691E-04 -0.12168375E-03
    3    2   -0.11250647E-03  0.96404025E-03
    1    3   -0.49201965E-04  0.10640959E-03
    2    3    0.61927286E-03 -0.29981390E-03
    3    3   -0.26992993E-02  0.52399182E-03

   -4   -2   -2
    1    1   -0.26839688E-02 -0.46403152E-03
    2    1    0.69046219E-03 -0.80364996E-03
    3    1   -0.68870492E-03  0.12550669E-02
    1    2    0.11999239E-02 -0.20095521E-02
    2    2   -0.26591202E-02 -0.20310231E-03
    3    2   -0.13938487E-02  0.10111100E-02
    1    3   -0.14403281E-02 -0.10103980E-02
    2    3   -0.82480483E-03 -0.94973080E-03
    3    3    0.54281173E-02  0.66713382E-03

   -4   -2   -1
    1    1   -0.40251045E-02 -0.11552930E-02
    2    1    0.95926850E-03 -0.33250221E-03
    3    1   -0.10028144E-02  0.98615041E-04
    1    2    0.16941762E-04 -0.55358418E-03
    2    2   -0.22617015E-02  0.35802614E-03
    3    2   -0.30292681E-02  0.42421997E-03
    1    3   -0.21417971E-02  0.85097995E-03
    2    3    0.89796249E-03 -0.56871248E-03
    3    3    0.63018623E-02  0.79726690E-03

   -4   -2    0
    1    1   -0.13548166E-02  0.63771774E-03
    2    1   -0.89912383E-03 -0.15975649E-02
    3    1   -0.10206499E-02 -0.29806101E-04
    1    2   -0.28832524E-02  0.27078473E-04
    2    2   -0.53214788E-02  0.80696747E-04
    3    2   -0.26690028E-02 -0.11533368E-02
    1    3   -0.18340340E-02 -0.22021905E-03
    2    3    0.72901645E-04  0.87791522E-03
    3    3    0.62853248E-02 -0.71841448E-03

   -4   -2    1
    1    1   -0.31760923E-02  0.14370580E-02
    2    1   -0.13427233E-02  0.31840035E-03
    3    1   -0.81581590E-03 -0.54012483E-03
    1    2   -0.35413539E-02 -0.10437785E-02
    2    2   -0.29891647E-02 -0.16693521E-02
    3    2   -0.35013997E-02 -0.56048172E-03
    1    3    0.15157211E-03  0.13630965E-02
    2    3    0.15129968E-02 -0.36369939E-03
    3    3    0.61803134E-02  0.23229404E-03

   -4   -2    2
    1    1   -0.27039857E-02 -0.99563865E-03
    2    1   -0.73072251E-03 -0.14307299E-03
    3    1    0.20127191E-03 -0.73223774E-04
    1    2   -0.50282969E-02  0.42740754E-04
    2    2   -0.35020261E-02  0.36586251E-03
    3    2   -0.15779374E-02 -0.20249625E-03
    1    3   -0.15817266E-02  0.14316983E-03
    2    3   -0.32214027E-03 -0.24230877E-05
    3    3    0.62910401E-02  0.62977614E-03

   -4   -2    3
    1    1    0.27595136E-02  0.41574395E-03
    2    1   -0.49230597E-03  0.55955993E-03
    3    1    0.22860887E-03 -0.20274729E-03
    1    2   -0.15566340E-02  0.74236742E-03
    2    2   -0.81321459E-03 -0.74685344E-03
    3    2   -0.18657567E-04  0.38944633E-03
    1    3   -0.90114315E-03  0.91089352E-03
    2    3    0.91651103E-03 -0.35353662E-03
    3    3   -0.19673660E-02  0.33110950E-03

   -4   -2    4
    1    1    0.41140101E-05  0.17808706E-03
    2    1   -0.18941572E-04  0.42750773E-03
    3    1    0.37778101E-03  0.20931370E-03
    1    2   -0.16366581E-03 -0.10592552E-02
    2    2    0.11845200E-02 -0.17567495E-03
    3    2    0.26378139E-03  0.37348036E-03
    1    3   -0.17372327E-02 -0.24120536E-03
    2    3   -0.51611628E-03 -0.10325176E-03
    3    3   -0.11476374E-02 -0.24121099E-05

   -4   -2    5
    1    1    0.23519235E-03 -0.46226134E-03
    2    1    0.20479480E-03 -0.14880810E-02
    3    1    0.17371039E-03 -0.18505524E-03
    1    2    0.80946176E-03  0.10887146E-02
    2    2   -0.72560499E-03  0.28487417E-03
    3    2    0.17737880E-03 -0.71316440E-04
    1    3   -0.75196461E-04  0.11747326E-03
    2    3   -0.75272945E-03  0.76396907E-04
    3    3    0.49041263E-03  0.17738717E-03

   -4   -1   -5
    1    1   -0.47383014E-04  0.56615732E-03
    2    1   -0.20347516E-03  0.27402622E-04
    3    1    0.14190723E-03 -0.21599748E-03
    1    2   -0.33296880E-03  0.30332705E-03
    2    2    0.71426182E-03  0.35346225E-03
    3    2   -0.93994456E-04  0.42251124E-03
    1    3   -0.88839865E-03 -0.96379966E-03
    2    3    0.39645915E-03 -0.70906698E-04
    3    3   -0.66687880E-03 -0.91961956E-03

   -4   -1   -4
    1    1   -0.81158615E-03 -0.10946070E-02
    2    1    0.15652442E-03 -0.45890191E-03
    3    1   -0.90475721E-03  0.67880100E-03
    1    2   -0.18806972E-03  0.94312162E-04
    2    2    0.17208237E-02 -0.15240308E-03
    3    2   -0.30491600E-03  0.18447186E-03
    1    3   -0.57233331E-03  0.17558400E-03
    2    3   -0.36752746E-03  0.52910722E-04
    3    3   -0.96874910E-03  0.12470101E-02

   -4   -1   -3
    1    1    0.58146133E-02 -0.86182949E-03
    2    1   -0.62432877E-03 -0.20676041E-03
    3    1   -0.22109694E-02  0.36846868E-03
    1    2    0.16296765E-02 -0.18973317E-02
    2    2   -0.20913628E-03 -0.19080457E-03
    3    2    0.30255173E-03  0.29480723E-03
    1    3   -0.27787063E-04  0.97796740E-03
    2    3    0.69352584E-03  0.12255877E-03
    3    3   -0.56446552E-02  0.10526341E-02

   -4   -1   -2
    1    1   -0.20875335E-02 -0.61029689E-03
    2    1   -0.45554818E-03 -0.47055200E-03
    3    1   -0.21782400E-02  0.57710695E-03
    1    2    0.19970279E-02 -0.12230910E-03
    2    2   -0.42946137E-02  0.24601669E-03
    3    2   -0.86762142E-03  0.13120245E-04
    1    3   -0.25483421E-04 -0.13230964E-03
    2    3   -0.15814463E-02  0.10311959E-03
    3    3    0.63972036E-02  0.36428019E-03

   -4   -1   -1
    1    1   -0.53402068E-02 -0.44202580E-05
    2    1   -0.27459826E-03 -0.11163719E-02
    3    1   -0.35197464E-02  0.29846532E-03
    1    2    0.14513647E-02 -0.16739687E-03
    2    2   -0.54750347E-02  0.69983070E-04
    3    2   -0.39778330E-02  0.22841059E-03
    1    3    0.16028128E-02 -0.58243782E-03
    2    3    0.15247366E-02 -0.18286794E-02
    3    3    0.10890763E-01 -0.65562812E-04

   -4   -1    0
    1    1    0.97142660E-03  0.16022720E-02
    2    1   -0.17978481E-02 -0.15302378E-03
    3    1   -0.17676427E-02  0.31765433E-03
    1    2   -0.17044430E-02 -0.11685945E-02
    2    2   -0.88244166E-02 -0.80755255E-03
    3    2   -0.21419824E-02  0.26774211E-03
    1    3    0.26425695E-03  0.24276567E-03
    2    3   -0.34273289E-02 -0.99963618E-03
    3    3    0.76260406E-02 -0.79471944E-03

   -4   -1    1
    1    1   -0.48557310E-02  0.78208439E-03
    2    1   -0.12042170E-02  0.16311148E-03
    3    1   -0.18604473E-02 -0.16976161E-03
    1    2   -0.39544375E-02 -0.16483708E-02
    2    2   -0.63251830E-02 -0.14608606E-03
    3    2   -0.26356946E-02  0.10866197E-03
    1    3    0.17877556E-02  0.81838959E-03
    2    3    0.46135081E-03 -0.17384598E-02
    3    3    0.11256435E-01 -0.63599833E-03

   -4   -1    2
    1    1   -0.22971852E-02  0.82737253E-03
    2    1   -0.12978810E-02 -0.18265965E-02
    3    1    0.54158248E-03  0.11675288E-02
    1    2   -0.41785547E-02  0.98313194E-04
    2    2   -0.41290436E-02 -0.12274514E-02
    3    2   -0.11003389E-02 -0.57924000E-03
    1    3   -0.89915029E-03  0.29325587E-03
    2    3   -0.28674070E-02 -0.15844278E-03
[...]

    5    4   -3
    1    1   -0.16478111E-14  0.15174223E-13  0.46978221E-02 -0.52692253E-02  0.22269364E-01  0.11334059E-01
    2    1    0.20924700E-01 -0.98230141E-02  0.35900716E-02 -0.18060355E-01  0.43561001E-02 -0.95840129E-02
    3    1    0.15346018E-02 -0.33673377E-01 -0.43376173E-03 -0.33163693E-02  0.44986521E-01  0.32800064E-01
    1    2   -0.12885420E-01  0.23355022E-01 -0.27499594E-02 -0.18817914E-01 -0.10857552E-01  0.32210508E-02
    2    2   -0.28402682E-13 -0.33499353E-13  0.10630642E-02  0.25116679E-03 -0.84495510E-03  0.45362548E-02
    3    2   -0.13740797E-01  0.38454860E-02 -0.14268167E-01 -0.89676365E-02 -0.94770577E-02  0.44140122E-02
    1    3    0.15898547E-01 -0.19563654E-01  0.11804845E-01 -0.16038756E-02  0.31252867E-01  0.14964801E-01
    2    3   -0.44605905E-03  0.69925309E-03 -0.24988651E-01  0.46285640E-03 -0.26010177E-02  0.14598326E-01
    3    3   -0.17275000E-13 -0.56234816E-13  0.69969635E-03 -0.41245422E-02  0.18105377E-01  0.57536765E-02

    5    4   -2
    1    1   -0.12620520E-13 -0.15806855E-14 -0.13899561E-02 -0.20708318E-02 -0.25006163E-01 -0.20245305E-01
    2    1   -0.20105724E-01 -0.60928092E-02  0.66660093E-03  0.10438240E-02 -0.15767751E-01 -0.19798921E-02
    3    1   -0.12637753E-01  0.71757209E-02  0.17400668E-01  0.10416489E-01  0.26301860E-02 -0.20788510E-01
    1    2    0.40352131E-02 -0.94549018E-02  0.13934259E-01  0.46016357E-02 -0.25178488E-02 -0.60213931E-02
    2    2    0.45209387E-13  0.12993296E-13 -0.25360956E-02  0.93943260E-03 -0.16091327E-02  0.17726041E-02
    3    2   -0.96494865E-03 -0.93566702E-02  0.47739352E-01 -0.19887765E-01  0.18184371E-01  0.45498335E-02
    1    3    0.14228025E-04 -0.86665763E-02  0.98858300E-02 -0.47953608E-02  0.30014017E-01  0.79052494E-02
    2    3    0.21704586E-02  0.61382906E-02  0.39250526E-01 -0.30354169E-01  0.16620744E-01 -0.19530641E-01
    3    3    0.53475778E-13  0.23101177E-13 -0.51398009E-02  0.64472292E-03 -0.66220042E-02  0.91222645E-02

    5    4   -1
    1    1    0.10721458E-13 -0.19523581E-13 -0.25731330E-03  0.86660972E-02 -0.97845535E-02 -0.74813111E-02
    2    1   -0.24024396E-02 -0.96062147E-02 -0.71747719E-02  0.16833998E-01  0.10702099E-01  0.56221693E-02
    3    1   -0.52106251E-02  0.19319520E-01  0.20110667E-01 -0.14493516E-01 -0.18585530E-01 -0.27337985E-02
    1    2   -0.21367820E-01 -0.97631670E-02 -0.91051379E-02 -0.15758009E-02  0.54094305E-02  0.51308276E-02
    2    2   -0.43103271E-13  0.10115118E-13 -0.33446014E-03 -0.51945111E-02  0.13372807E-01 -0.14280374E-01
    3    2   -0.11841683E-01  0.17595705E-01  0.62240482E-01 -0.43278269E-01  0.24567795E-01  0.12976564E-01
    1    3   -0.48365613E-02  0.19097700E-01 -0.11653835E-01  0.51839529E-02 -0.94937174E-02 -0.25883820E-01
    2    3   -0.33444123E-01  0.32796037E-02  0.69985279E-01 -0.30618830E-01  0.29443523E-01 -0.29446113E-02
    3    3   -0.50340767E-13  0.38686393E-13 -0.30559470E-02  0.24954683E-03  0.69732894E-02 -0.19573048E-01

    5    4    0
    1    1    0.76786450E-14  0.26169822E-13 -0.63659270E-03 -0.22048116E-02  0.33286386E-01  0.32695986E-02
    2    1   -0.13718444E-01 -0.14197946E-01  0.39340188E-02 -0.16530704E-01  0.20910789E-01 -0.13947026E-01
    3    1    0.20156132E-02 -0.27636270E-01  0.15035245E-02  0.64773634E-02 -0.21577148E-02  0.24193869E-02
    1    2    0.14766450E-01 -0.20793989E-02 -0.14488289E-01  0.22671995E-02 -0.48010205E-02 -0.47265100E-02
    2    2    0.26789823E-13 -0.28547558E-13  0.55254396E-02 -0.28592243E-02  0.13693504E-02  0.23538677E-01
    3    2   -0.18451463E-01  0.56897973E-02  0.10782441E+00  0.74824745E-03 -0.12402496E-01 -0.15781636E-01
    1    3    0.17473446E-01  0.22000522E-01  0.61436052E-03 -0.11561334E-01  0.12502735E-01  0.11162569E-02
    2    3   -0.13292842E-01 -0.51827201E-02  0.78018095E-01 -0.27228009E-02 -0.82454343E-03 -0.62416972E-02
    3    3   -0.64496070E-14 -0.60541043E-13  0.22467103E-02 -0.60499934E-03  0.89166132E-03  0.13159918E-01

    5    4    1
    1    1   -0.22736695E-13 -0.11111808E-13  0.29518851E-02 -0.48428237E-02 -0.34271104E-01 -0.44342200E-02
    2    1    0.22544894E-01 -0.23086833E-02 -0.16414265E-02  0.38854556E-02 -0.18166830E-01  0.18675432E-02
    3    1    0.21349230E-02 -0.44284582E-02  0.96985631E-02  0.19285963E-01  0.18732665E-01  0.57805213E-02
    1    2    0.16356661E-01  0.15919712E-01  0.51773921E-02 -0.95213640E-02 -0.12432418E-01 -0.99209274E-03
    2    2   -0.94344563E-14  0.25275880E-13 -0.25203390E-02  0.44038782E-02 -0.14936766E-01 -0.18450620E-01
    3    2   -0.31216263E-01 -0.13664162E-01  0.61923045E-01  0.23609367E-01 -0.11574492E-01 -0.23714532E-01
    1    3    0.85064545E-02 -0.16010703E-01 -0.18583272E-01 -0.29987943E-03  0.86223072E-03  0.14633686E-01
    2    3   -0.30925770E-01 -0.30267833E-02  0.59754604E-01 -0.95598334E-03 -0.12389483E-01 -0.16391931E-01
    3    3    0.43642485E-13  0.33457440E-13  0.65729591E-03  0.42941504E-02 -0.13875545E-01 -0.35028348E-01

    5    4    2
    1    1    0.24288893E-13 -0.12734835E-13 -0.21174447E-02  0.19811075E-02  0.10713320E-01  0.16573133E-01
    2    1    0.27238548E-03 -0.24233941E-02  0.66428941E-02  0.57119668E-02 -0.14226079E-02 -0.76527543E-02
    3    1   -0.73016033E-02 -0.13277891E-02 -0.14424002E-01 -0.13379317E-02 -0.24213178E-02 -0.34939509E-02
    1    2    0.14082917E-01  0.67504779E-02 -0.15725631E-01  0.23719077E-02 -0.55072663E-02 -0.13325589E-02
    2    2    0.10404004E-14 -0.15890216E-13  0.40109078E-02  0.80460986E-04 -0.63987481E-02 -0.52368801E-02
    3    2    0.13034356E-01 -0.54635598E-02  0.49047467E-01 -0.48529945E-02 -0.24120485E-02  0.12744889E-01
    1    3   -0.56076424E-02  0.86931653E-02 -0.24654555E-01 -0.45242517E-02 -0.13688422E-01 -0.41054459E-02
    2    3   -0.34918442E-02 -0.18582553E-01  0.46199708E-01  0.55743618E-02 -0.14191232E-01  0.18921085E-04
    3    3   -0.55020631E-13  0.17832680E-13 -0.37809945E-02 -0.53203595E-03  0.84362427E-02  0.16260835E-01

    5    4    3
    1    1   -0.51044780E-14  0.30525631E-13  0.57858244E-02  0.36314771E-02 -0.83001890E-02 -0.77493865E-02
    2    1   -0.23813635E-01 -0.42737865E-02  0.35069058E-02  0.78452807E-03 -0.89533611E-02  0.63098612E-02
    3    1   -0.42534338E-02  0.13499810E-01 -0.27790897E-01 -0.13142678E-01  0.30095516E-01 -0.13888732E-01
    1    2    0.33225831E-02 -0.93591954E-02 -0.87407724E-02 -0.64854126E-02  0.94891244E-02 -0.59779238E-03
    2    2   -0.46311425E-14  0.12375924E-13  0.49988501E-02  0.29983357E-03  0.41286506E-02  0.15312967E-01
    3    2   -0.15080832E-01 -0.44296521E-02 -0.81432687E-02  0.10992206E-01  0.25314843E-02  0.29991182E-02
    1    3   -0.11409760E-01  0.85928176E-02 -0.23071532E-01 -0.16715718E-01  0.32914832E-01  0.37141820E-02
    2    3   -0.61490735E-03 -0.10153656E-02 -0.21791096E-01  0.19145321E-01 -0.65956672E-02  0.18013789E-01
    3    3    0.20185175E-13 -0.57226928E-13  0.92859550E-03 -0.34768862E-03 -0.13391568E-01  0.90733104E-02

    5    4    4
    1    1   -0.17488642E-13 -0.29430153E-13 -0.51214471E-02 -0.55294293E-02  0.35370188E-02  0.34113965E-02
    2    1    0.43413315E-02  0.13229559E-01 -0.50621068E-03  0.67788489E-02  0.17257005E-01  0.17828910E-01
    3    1    0.64870457E-03  0.12868256E-01  0.15331199E-01  0.21809115E-02 -0.48707516E-01 -0.42998139E-03
    1    2    0.84000125E-02 -0.42373056E-02  0.71701188E-02  0.13153821E-01  0.13902400E-01  0.12383192E-01
    2    2    0.10025157E-13 -0.17750477E-13 -0.39580675E-02  0.28237970E-02 -0.78635222E-02 -0.14820991E-02
    3    2   -0.11843031E-01  0.11189576E-01 -0.54281712E-01  0.15223213E-01  0.13915038E-01  0.53065580E-02
    1    3   -0.57538302E-02  0.10030960E-01  0.19191479E-01  0.13427017E-01 -0.23644842E-01 -0.19183873E-03
    2    3   -0.18986150E-01  0.44870468E-02 -0.27123748E-01  0.15529983E-01  0.20339861E-01  0.27719834E-01
    3    3    0.38305012E-13  0.49432802E-13  0.32638730E-02  0.44596365E-02  0.13667034E-02 -0.46520600E-02

    5    4    5
    1    1    0.27024200E-13  0.10987142E-13  0.70700772E-03  0.73205067E-02  0.50825839E-14 -0.29771379E-14
    2    1    0.20769315E-01 -0.84824460E-02 -0.33366988E-02 -0.80273393E-02  0.25847598E-02 -0.18769604E-01
    3    1   -0.10636907E-02 -0.13557127E-01  0.25066076E-01 -0.31465464E-03  0.55327894E-02  0.34156038E-02
    1    2   -0.10950703E-01  0.14912846E-01 -0.11881394E-01 -0.10239181E-01 -0.75328399E-02 -0.20740189E-01
    2    2   -0.95751179E-14  0.28294695E-13  0.32995992E-02 -0.53091160E-02 -0.24584772E-13  0.13849056E-13
    3    2    0.11735661E-02 -0.31417979E-02 -0.10411856E-01 -0.11909833E-01  0.95951434E-02  0.92393789E-02
    1    3    0.32634999E-01 -0.24208330E-01  0.58051285E-02  0.65644691E-02 -0.26781433E-01  0.97562852E-02
    2    3    0.35025132E-02 -0.56402262E-02 -0.10775473E-01 -0.11893379E-01  0.13597734E-01 -0.12799922E-02
    3    3   -0.56442522E-13  0.26643862E-14  0.36572376E-02 -0.31483100E-02 -0.72538953E-14 -0.23554834E-14

    5    5   -5
    1    1    0.15072114E-14 -0.83442368E-14  0.14757844E-14 -0.22435233E-13 -0.35404195E-15  0.74730397E-14
    2    1    0.58391691E-01 -0.15046383E-01 -0.39758404E-02  0.23723866E-02 -0.11838036E-01  0.11797499E-02
    3    1   -0.14622089E-01  0.29744616E-02  0.70594590E-01 -0.95179550E-02  0.23348704E-02  0.19568279E-02
    1    2    0.58391691E-01  0.15046383E-01 -0.39758404E-02 -0.23723866E-02 -0.11838036E-01 -0.11797499E-02
    2    2    0.15452112E-14  0.45954180E-13 -0.20857318E-15 -0.11896378E-12  0.13399398E-14  0.13405076E-14
    3    2   -0.69062644E-02 -0.64178792E-02 -0.49890166E-02  0.35693693E-02  0.70436104E-01 -0.11776830E-02
    1    3   -0.14622089E-01 -0.29744616E-02  0.70594590E-01  0.95179550E-02  0.23348704E-02 -0.19568279E-02
    2    3   -0.69062644E-02  0.64178792E-02 -0.49890166E-02 -0.35693693E-02  0.70436104E-01  0.11776830E-02
    3    3   -0.10957485E-15  0.58697798E-13  0.14390240E-14  0.15042926E-13  0.14602634E-14 -0.24803835E-14

    5    5   -4
    1    1    0.18741695E-13  0.15097515E-15  0.16070668E-13  0.12363428E-13 -0.46397632E-02 -0.19080334E-02
    2    1   -0.14643437E-01 -0.29747250E-02  0.36466539E-02 -0.15967708E-01  0.63084692E-02 -0.11846423E-01
    3    1   -0.10513832E-01 -0.19107985E-01 -0.20438045E-01 -0.20432431E-01  0.11839064E-01 -0.11842545E-01
    1    2    0.48971400E-03  0.57630277E-02  0.62536566E-02 -0.15067313E-01  0.36588944E-02 -0.12540837E-01
    2    2   -0.21125706E-13 -0.38042377E-13  0.83769488E-13  0.46195612E-13 -0.22398533E-02 -0.16587326E-02
    3    2   -0.19742562E-01 -0.25861385E-01  0.20839965E-01 -0.27037795E-02 -0.13367483E-01  0.84255605E-02
    1    3    0.45826557E-03 -0.33616482E-02  0.87736514E-03 -0.19149454E-01  0.66740987E-02 -0.28666306E-01
    2    3    0.10039705E-01 -0.23365137E-01 -0.14217538E-01 -0.18751693E-02 -0.14271053E-01 -0.24700307E-03
    3    3   -0.45465693E-13 -0.34835863E-13 -0.32024080E-14  0.15900774E-13 -0.17415973E-02  0.31361754E-02

    5    5   -3
    1    1   -0.22083979E-13  0.16129649E-13 -0.21173249E-13  0.79268189E-14  0.16450566E-01 -0.20673231E-02
    2    1   -0.34466689E-01  0.14262828E-01 -0.81873267E-02  0.20449128E-01 -0.29269618E-02  0.86169331E-02
    3    1    0.14706069E-01  0.25825872E-01 -0.34029157E-01  0.12123193E-01 -0.64341432E-02 -0.10219739E-02
    1    2   -0.57732627E-01 -0.25124755E-01  0.32722754E-02  0.63712268E-02 -0.19167904E-02  0.48266583E-02
    2    2    0.31502416E-13  0.19337938E-13 -0.92213875E-13  0.16631695E-13  0.12974524E-02  0.73198301E-02
    3    2    0.11453432E-01  0.20457377E-02 -0.70685632E-02 -0.72741317E-02  0.77351920E-04  0.78591464E-02
    1    3    0.21172751E-01  0.80754930E-02 -0.65093449E-01 -0.28628553E-02 -0.15238453E-01  0.31022105E-01
    2    3   -0.13719391E-01  0.76817557E-02  0.22258634E-01 -0.78704231E-02 -0.16756748E-03  0.11768823E-01
    3    3    0.60856376E-13 -0.17454029E-13 -0.81652350E-14  0.57546199E-14  0.80603501E-02  0.21389383E-02

    5    5   -2
    1    1    0.57474641E-14 -0.28415665E-13  0.95182922E-14 -0.22287348E-13  0.52418149E-02  0.88095192E-02
    2    1    0.19287469E-01  0.13893437E-01 -0.71353787E-02 -0.47528825E-02  0.15298976E-01 -0.17463355E-01
    3    1    0.51713688E-02 -0.20666012E-01  0.96055359E-02  0.80678861E-02 -0.11869975E-01 -0.13582363E-01
    1    2    0.11413950E-01  0.63402214E-02 -0.16331059E-01 -0.21842805E-02 -0.97349882E-02  0.87138281E-02
    2    2   -0.29491221E-13  0.46973059E-15  0.42530547E-13 -0.10982676E-12 -0.23808271E-02 -0.25797818E-02
    3    2    0.14339890E-01  0.44661932E-01  0.44375062E-02  0.37865940E-02 -0.10611767E-01 -0.70490207E-02
    1    3   -0.25191836E-02  0.75531756E-03  0.51990757E-02  0.13890498E-01  0.77512395E-02 -0.21104395E-02
    2    3    0.76537883E-02  0.21834118E-01  0.41362212E-02  0.23913315E-01 -0.10535465E-01  0.22927286E-02
    3    3   -0.22309398E-13  0.59392243E-13 -0.80616666E-14 -0.88178163E-15 -0.39433986E-02 -0.63470048E-02

    5    5   -1
    1    1    0.20020118E-13  0.23546649E-13  0.15152051E-13  0.19526102E-13 -0.86774550E-02 -0.86371950E-02
    2    1   -0.61230025E-02 -0.14493634E-01  0.12575984E-01  0.52029226E-02 -0.12258653E-01 -0.76257833E-03
    3    1   -0.17516874E-01 -0.41326394E-02 -0.29389856E-01  0.10477953E-01  0.34176877E-02 -0.40938828E-02
    1    2    0.45238746E-01  0.13429188E-01  0.11817597E-02 -0.73854040E-03  0.13815376E-01 -0.24193806E-02
    2    2    0.18085414E-13 -0.45336998E-14  0.72820791E-13  0.78671773E-13 -0.20368102E-01 -0.20160724E-01
    3    2    0.43412548E-03  0.31926009E-02 -0.36237047E-02  0.28144898E-02 -0.10785099E-01 -0.25389135E-01
    1    3   -0.22674516E-02 -0.88522417E-02  0.18855896E-01  0.16210314E-02  0.12714496E-01 -0.18138010E-01
    2    3    0.99154446E-02  0.12877733E-01 -0.14819735E-01 -0.10047213E-01 -0.15800873E-01 -0.26834655E-01
    3    3   -0.40393158E-13 -0.45410094E-13 -0.60238544E-14 -0.15817425E-14 -0.15320505E-01 -0.22982259E-01

    5    5    0
    1    1   -0.30437567E-13  0.35317496E-15 -0.27267630E-13  0.32381462E-15 -0.27954748E-01 -0.74514786E-16
    2    1    0.22782746E-01 -0.23387479E-01 -0.64304939E-02  0.10622024E-01 -0.85185870E-02  0.12033263E-01
    3    1    0.56765411E-02  0.11424092E-01  0.94921943E-02 -0.78563671E-02 -0.16012503E-01  0.36076333E-02
    1    2   -0.22782746E-01 -0.23387479E-01  0.64304939E-02  0.10622024E-01 -0.85185870E-02 -0.12033263E-01
    2    2   -0.12625480E-13  0.30595249E-15 -0.93524425E-13 -0.12906203E-15  0.21257876E-02  0.37729704E-15
    3    2    0.78112664E-02 -0.27201366E-02 -0.15059291E-01 -0.34805208E-01 -0.38566983E-03 -0.18933781E-02
    1    3   -0.56765411E-02  0.11424092E-01 -0.94921943E-02 -0.78563671E-02 -0.16012503E-01 -0.36076333E-02
    2    3   -0.78112664E-02 -0.27201366E-02  0.15059291E-01 -0.34805208E-01 -0.38566983E-03  0.18933781E-02
    3    3    0.55184847E-13 -0.47834176E-17 -0.13921644E-13  0.22349089E-15 -0.70628957E-02  0.29869464E-15

    5    5    1
    1    1    0.20284826E-13 -0.23420353E-13  0.15462810E-13 -0.19374015E-13 -0.86774550E-02  0.86371950E-02
    2    1   -0.45238746E-01  0.13429188E-01 -0.11817597E-02 -0.73854040E-03  0.10537459E-01  0.57498197E-02
    3    1    0.22674516E-02 -0.88522417E-02 -0.18855896E-01  0.16210314E-02  0.45941250E-02  0.20634770E-01
    1    2    0.61230025E-02 -0.14493634E-01 -0.12575984E-01  0.52029226E-02 -0.93997959E-02  0.13485804E-01
    2    2    0.18316728E-13  0.47322850E-14  0.72825358E-13 -0.78689994E-13 -0.20368102E-01  0.20160724E-01
    3    2   -0.99154446E-02  0.12877733E-01  0.14819735E-01 -0.10047213E-01 -0.27151928E-02  0.27321187E-01
    1    3    0.17516874E-01 -0.41326394E-02  0.29389856E-01  0.10477953E-01 -0.30983844E-02  0.97545527E-02
    2    3   -0.43412548E-03  0.31926009E-02  0.36237047E-02  0.28144898E-02  0.45723879E-03  0.30732420E-01
    3    3   -0.40394039E-13  0.45340149E-13 -0.57727260E-14  0.18150086E-14 -0.15320505E-01  0.22982259E-01

    5    5    2
    1    1    0.50185008E-14  0.28509828E-13  0.87997643E-14  0.22382297E-13  0.52418149E-02 -0.88095192E-02
    2    1   -0.11413950E-01  0.63402214E-02  0.16331059E-01 -0.21842805E-02 -0.61982710E-02 -0.61171304E-02
    3    1    0.25191836E-02  0.75531756E-03 -0.51990757E-02  0.13890498E-01  0.12848631E-01 -0.85282606E-02
    1    2   -0.19287469E-01  0.13893437E-01  0.71353787E-02 -0.47528825E-02  0.23440515E-01  0.12565568E-02
    2    2   -0.30135155E-13 -0.39852561E-15  0.42764403E-13  0.10987024E-12 -0.23808271E-02  0.25797818E-02
    3    2   -0.76537883E-02  0.21834118E-01 -0.41362212E-02  0.23913315E-01 -0.25196345E-02  0.10032222E-01
    1    3   -0.51713688E-02 -0.20666012E-01 -0.96055359E-02  0.80678861E-02 -0.60064724E-02  0.11087366E-01
    2    3   -0.14339890E-01  0.44661932E-01 -0.44375062E-02  0.37865940E-02  0.58741233E-03  0.11289706E-01
    3    3   -0.22150698E-13 -0.59269728E-13 -0.86467292E-14  0.88332661E-15 -0.39433986E-02  0.63470048E-02

    5    5    3
    1    1   -0.21507156E-13 -0.16180308E-13 -0.20613611E-13 -0.79762585E-14  0.16450566E-01  0.20673231E-02
    2    1    0.57732627E-01 -0.25124755E-01 -0.32722754E-02  0.63712268E-02 -0.34243453E-02  0.10378396E-01
    3    1   -0.21172751E-01  0.80754930E-02  0.65093449E-01 -0.28628553E-02  0.26307929E-02  0.54514027E-02
    1    2    0.34466689E-01  0.14262828E-01  0.81873267E-02  0.20449128E-01 -0.14154454E-01 -0.26891267E-02
    2    2    0.31987840E-13 -0.19378677E-13 -0.92322661E-13 -0.16554520E-13  0.12974524E-02 -0.73198301E-02
    3    2    0.13719391E-01  0.76817557E-02 -0.22258634E-01 -0.78704231E-02  0.23170119E-01  0.36962240E-02
    1    3   -0.14706069E-01  0.25825872E-01  0.34029157E-01  0.12123193E-01  0.18628241E-01 -0.61134797E-02
    2    3   -0.11453432E-01  0.20457377E-02  0.70685632E-02 -0.72741317E-02  0.24931927E-01  0.14532549E-02
    3    3    0.60856498E-13  0.17565769E-13 -0.77321233E-14 -0.57980422E-14  0.80603501E-02 -0.21389383E-02

    5    5    4
    1    1    0.18096879E-13 -0.96222943E-16  0.15482326E-13 -0.12307863E-13 -0.46397632E-02  0.19080334E-02
    2    1   -0.48971400E-03  0.57630277E-02 -0.62536566E-02 -0.15067313E-01 -0.63178037E-02 -0.15874527E-01
    3    1   -0.45826557E-03 -0.33616482E-02 -0.87736514E-03 -0.19149454E-01 -0.21638315E-02 -0.18597407E-01
    1    2    0.14643437E-01 -0.29747250E-02 -0.36466539E-02 -0.15967708E-01 -0.82413420E-02 -0.13191466E-01
    2    2   -0.21874606E-13  0.37968489E-13  0.83930851E-13 -0.46250459E-13 -0.22398533E-02  0.16587326E-02
    3    2   -0.10039705E-01 -0.23365137E-01  0.14217538E-01 -0.18751693E-02  0.18494543E-01 -0.23238693E-01
    1    3    0.10513832E-01 -0.19107985E-01  0.20438045E-01 -0.20432431E-01 -0.66408036E-02 -0.11372818E-01
    2    3    0.19742562E-01 -0.25861385E-01 -0.20839965E-01 -0.27037795E-02  0.12737567E-01 -0.13748823E-01
    3    3   -0.45400898E-13  0.34823937E-13 -0.38629988E-14 -0.16040798E-13 -0.17415973E-02 -0.31361754E-02

    5    5    5
    1    1    0.18969820E-14  0.83442368E-14  0.18325346E-14  0.22435233E-13 -0.35702462E-15 -0.74730397E-14
    2    1   -0.58391691E-01  0.15046383E-01  0.39758404E-02 -0.23723866E-02  0.11838036E-01 -0.11797499E-02
    3    1    0.14622089E-01 -0.29744616E-02 -0.70594590E-01  0.95179550E-02 -0.23348704E-02 -0.19568279E-02
    1    2   -0.58391691E-01 -0.15046383E-01  0.39758404E-02  0.23723866E-02  0.11838036E-01  0.11797499E-02
    2    2    0.18895790E-14 -0.45954180E-13 -0.37269428E-15  0.11896378E-12  0.18493752E-14 -0.13405076E-14
    3    2    0.69062644E-02  0.64178792E-02  0.49890166E-02 -0.35693693E-02 -0.70436104E-01  0.11776830E-02
    1    3    0.14622089E-01  0.29744616E-02 -0.70594590E-01 -0.95179550E-02 -0.23348704E-02  0.19568279E-02
    2    3    0.69062644E-02 -0.64178792E-02  0.49890166E-02  0.35693693E-02 -0.70436104E-01 -0.11776830E-02
    3    3   -0.18357133E-15 -0.58697798E-13  0.17055884E-14 -0.15042926E-13  0.19096475E-14  0.24803835E-14
